                               Psi4 1.4a2.dev629

  ==> Input File <==

--------------------------------------------------------------------------
import os
memory 14 GB

molecule {
 C   -0.3233411003    0.0019957258    0.0004963720
 C    0.0624074459   -1.4003462780   -2.4270800482
 C    0.0608661892    2.8009132398    0.0003848401
 C    0.0600246874   -1.4001007137    2.4274137643
 H    2.0832487650   -1.6424691842   -2.8515137721
 H   -0.7657940330   -0.3884914819   -4.0310486497
 H   -0.7623764240   -3.2925023976   -2.3426209555
 H    2.0870216850    3.2835141152    0.0001824822
 H   -0.7639405339    3.6800092507    1.6754339386
 H   -0.7663374922    3.6809429130   -1.6760338918
 H    2.0903940736   -1.6418821138    2.8508802623
 H   -0.7668827056   -3.2883587325    2.3456591615
 H   -0.7678984338   -0.3932486564    4.0278464963
units bohr
0 2
}

basis {

assign 6-31g_2dfp_

[ 6-31g_2dfp_ ]

spherical

!----------------------------------------------------------------------
! Basis Set Exchange
! Version v0.8.13
! https://www.basissetexchange.org
!----------------------------------------------------------------------
!   Basis set: 6-31G(2df,p)
! Description: 6-31G(2df,p)
!        Role: orbital
!     Version: 0  (Data from the original Basis Set Exchange)
!----------------------------------------------------------------------

****
H     0
S    3   1.00
     18.7311370              0.03349460
      2.8253937              0.23472695
      0.6401217              0.81375733
S    1   1.00
      0.1612778              1.00000000
P    1   1.00
      1.5000000              1.0000000
P    1   1.00
      0.3750000              1.0000000
****
B     0
S    6   1.00
   2068.8823000              0.0018663
    310.6495700              0.0142515
     70.6830330              0.0695516
     19.8610800              0.2325729
      6.2993048              0.4670787
      2.1270270              0.3634314
SP   3   1.00
      4.7279710             -0.1303938              0.0745976
      1.1903377             -0.1307889              0.3078467
      0.3594117              1.1309444              0.7434568
SP   1   1.00
      0.1267512              1.0000000              1.0000000
D    1   1.00
      0.8020000              1.0000000
D    1   1.00
      0.2005000              1.0000000
F    1   1.00
      0.5000000              1.0000000
****
C     0
S    6   1.00
   3047.5249000              0.0018347
    457.3695100              0.0140373
    103.9486900              0.0688426
     29.2101550              0.2321844
      9.2866630              0.4679413
      3.1639270              0.3623120
SP   3   1.00
      7.8682724             -0.1193324              0.0689991
      1.8812885             -0.1608542              0.3164240
      0.5442493              1.1434564              0.7443083
SP   1   1.00
      0.1687144              1.0000000              1.0000000
D    1   1.00
      1.2520000              1.0000000
D    1   1.00
      0.3130000              1.0000000
F    1   1.00
      0.8000000              1.0000000
****
N     0
S    6   1.00
   4173.5110000              0.0018348
    627.4579000              0.0139950
    142.9021000              0.0685870
     40.2343300              0.2322410
     12.8202100              0.4690700
      4.3904370              0.3604550
SP   3   1.00
     11.6263580             -0.1149610              0.0675800
      2.7162800             -0.1691180              0.3239070
      0.7722180              1.1458520              0.7408950
SP   1   1.00
      0.2120313              1.0000000              1.0000000
D    1   1.00
      1.8260000              1.0000000
D    1   1.00
      0.4565000              1.0000000
F    1   1.00
      1.0000000              1.0000000
****
O     0
S    6   1.00
   5484.6717000              0.0018311
    825.2349500              0.0139501
    188.0469600              0.0684451
     52.9645000              0.2327143
     16.8975700              0.4701930
      5.7996353              0.3585209
SP   3   1.00
     15.5396160             -0.1107775              0.0708743
      3.5999336             -0.1480263              0.3397528
      1.0137618              1.1307670              0.7271586
SP   1   1.00
      0.2700058              1.0000000              1.0000000
D    1   1.00
      2.5840000              1.0000000
D    1   1.00
      0.6460000              1.0000000
F    1   1.00
      1.4000000              1.0000000
****
F     0
S    6   1.00
   7001.7130900              0.0018196169
   1051.3660900              0.0139160796
    239.2856900              0.0684053245
     67.3974453              0.233185760
     21.5199573              0.471267439
      7.40310130             0.356618546
SP   3   1.00
     20.8479528             -0.108506975            0.0716287243
      4.80830834            -0.146451658            0.3459121030
      1.34406986             1.128688580            0.7224699570
SP   1   1.00
      0.358151393            1.0000000              1.0000000
D    1   1.00
      3.5000000              1.0000000
D    1   1.00
      0.8750000              1.0000000
F    1   1.00
      1.8500000              1.0000000
****
Al     0
S    6   1.00
  13983.1000000              0.00194267
   2098.7500000              0.0148599
    477.7050000              0.0728494
    134.3600000              0.2468300
     42.8709000              0.4872580
     14.5189000              0.3234960
SP   6   1.00
    239.6680000             -0.00292619             0.00460285
     57.4419000             -0.0374080              0.0331990
     18.2859000             -0.1144870              0.1362820
      6.5991400              0.1156350              0.3304760
      2.4904900              0.6125950              0.4491460
      0.9445400              0.3937990              0.2657040
SP   3   1.00
      1.2779000             -0.2276060             -0.0175130
      0.3975900              0.00144583             0.2445330
      0.1600950              1.0927900              0.8049340
SP   1   1.00
      0.0556577              1.0000000              1.0000000
D    1   1.00
      0.6500000              1.0000000
D    1   1.00
      0.1625000              1.0000000
F    1   1.00
      0.2500000              1.0000000
****
Si     0
S    6   1.00
  16115.9000000              0.00195948
   2425.5800000              0.01492880
    553.8670000              0.07284780
    156.3400000              0.24613000
     50.0683000              0.48591400
     17.0178000              0.32500200
SP   6   1.00
    292.7180000             -0.00278094             0.00443826
     69.8731000             -0.03571460             0.03266790
     22.3363000             -0.11498500             0.13472100
      8.1503900              0.09356340             0.32867800
      3.1345800              0.60301700             0.44964000
      1.2254300              0.41895900             0.26137200
SP   3   1.00
      1.7273800             -0.24463000            -0.01779510
      0.5729220              0.00431572             0.25353900
      0.2221920              1.09818000             0.80066900
SP   1   1.00
      0.0778369              1.00000000             1.00000000
D    1   1.00
      0.9000000              1.0000000
D    1   1.00
      0.2250000              1.0000000
F    1   1.00
      0.3200000              1.0000000
****
P     0
S    6   1.00
  19413.3000000              0.0018516
   2909.4200000              0.0142062
    661.3640000              0.0699995
    185.7590000              0.2400790
     59.1943000              0.4847620
     20.0310000              0.3352000
SP   6   1.00
    339.4780000             -0.00278217             0.00456462
     81.0101000             -0.0360499              0.03369360
     25.8780000             -0.1166310              0.13975500
      9.4522100              0.0968328              0.33936200
      3.6656600              0.6144180              0.45092100
      1.4674600              0.4037980              0.23858600
SP   3   1.00
      2.1562300             -0.2529230             -0.01776530
      0.7489970              0.0328517              0.27405800
      0.2831450              1.0812500              0.78542100
SP   1   1.00
      0.0998317              1.0000000              1.00000000
D    1   1.00
      1.1000000              1.0000000
D    1   1.00
      0.2750000              1.0000000
F    1   1.00
      0.4500000              1.0000000
****
S     0
S    6   1.00
  21917.1000000              0.0018690
   3301.4900000              0.0142300
    754.1460000              0.0696960
    212.7110000              0.2384870
     67.9896000              0.4833070
     23.0515000              0.3380740
SP   6   1.00
    423.7350000             -0.0023767              0.0040610
    100.7100000             -0.0316930              0.0306810
     32.1599000             -0.1133170              0.1304520
     11.8079000              0.0560900              0.3272050
      4.6311000              0.5922550              0.4528510
      1.8702500              0.4550060              0.2560420
SP   3   1.00
      2.6158400             -0.2503740             -0.0145110
      0.9221670              0.0669570              0.3102630
      0.3412870              1.0545100              0.7544830
SP   1   1.00
      0.1171670              1.0000000              1.0000000
D    1   1.00
      1.3000000              1.0000000
D    1   1.00
      0.3250000              1.0000000
F    1   1.00
      0.5500000              1.0000000
****
Cl     0
S    6   1.00
  25180.1000000              0.0018330
   3780.3500000              0.0140340
    860.4740000              0.0690970
    242.1450000              0.2374520
     77.3349000              0.4830340
     26.2470000              0.3398560
SP   6   1.00
    491.7650000             -0.0022974              0.0039894
    116.9840000             -0.0307140              0.0303180
     37.4153000             -0.1125280              0.1298800
     13.7834000              0.0450160              0.3279510
      5.4521500              0.5893530              0.4535270
      2.2258800              0.4652060              0.2521540
SP   3   1.00
      3.1864900             -0.2518300             -0.0142990
      1.1442700              0.0615890              0.3235720
      0.4203770              1.0601800              0.7435070
SP   1   1.00
      0.1426570              1.0000000              1.0000000
D    1   1.00
      1.5000000              1.0000000
D    1   1.00
      0.3750000              1.0000000
F    1   1.00
      0.7000000              1.0000000
****
}

set {
reference uhf
freeze_core true
e_convergence 10
d_convergence 10
dft_spherical_points 1202
dft_radial_points 99
}

e = energy('b3lyp')

print_out('Grab this energy {0}'.format(e))
--------------------------------------------------------------------------

    Molecular point group: c1

    Geometry (in Bohr), charge = 0, multiplicity = 2:

       Center              X                  Y                   Z               Mass
    ------------   -----------------  -----------------  -----------------  -----------------
         C           -0.323340562357     0.001521961256     0.000262368078    12.000000000000
         C            0.062407983843    -1.400820042544    -2.427314052122    12.000000000000
         C            0.060866727143     2.800439475256     0.000150836178    12.000000000000
         C            0.060025225343    -1.400574478244     2.427179760378    12.000000000000
         H            2.083249302943    -1.642942948744    -2.851747776022     1.007825032230
         H           -0.765793495057    -0.388965246444    -4.031282653622     1.007825032230
         H           -0.762375886057    -3.292976162144    -2.342854959422     1.007825032230
         H            2.087022222943     3.283040350656    -0.000051521722     1.007825032230
         H           -0.763939995957     3.679535486156     1.675199934678     1.007825032230
         H           -0.766336954257     3.680469148456    -1.676267895722     1.007825032230
         H            2.090394611543    -1.642355878344     2.850646258378     1.007825032230
         H           -0.766882167657    -3.288832497044     2.345425157578     1.007825032230
         H           -0.767897895857    -0.393722420944     4.027612492378     1.007825032230

  Charge       = 0
  Multiplicity = 2
  Basis Set: ANONYMOUSC105B9B7
    Blend: 6-31G_2DFP_
  Basis Set: (ANONYMOUSC105B9B7 AUX)
    Blend: DEF2-UNIVERSAL-JKFIT

    Orbital Energies [Eh]
    ---------------------

    Alpha Occupied:

       1A    -10.180342     2A    -10.167133     3A    -10.167080
       4A    -10.166832     5A     -0.797767     6A     -0.686309
       7A     -0.686066     8A     -0.530777     9A     -0.441131
      10A     -0.434740    11A     -0.434597    12A     -0.382641
      13A     -0.382555    14A     -0.363611    15A     -0.338072
      16A     -0.337924    17A     -0.168961

    Alpha Virtual:

      18A      0.076071    19A      0.133985    20A      0.134323
      21A      0.142538    22A      0.142711    23A      0.154881
      24A      0.178686    25A      0.178872    26A      0.203549
      27A      0.214805    28A      0.275706    29A      0.276265
      30A      0.399181    31A      0.399267    32A      0.403352
      33A      0.423999    34A      0.424198    35A      0.456592
      36A      0.495231    37A      0.495545    38A      0.512160
      39A      0.513981    40A      0.578482    41A      0.579148
      42A      0.591290    43A      0.591965    44A      0.602585
      45A      0.624758    46A      0.631756    47A      0.636151
      48A      0.636371    49A      0.663044    50A      0.663792
      51A      0.683679    52A      0.684031    53A      0.734995
      54A      0.825184    55A      0.825619    56A      0.853921
      57A      0.914768    58A      0.915270    59A      0.944123
      60A      0.944610    61A      0.960604    62A      0.961995
      63A      1.003462    64A      1.127874    65A      1.128328
      66A      1.142213    67A      1.163114    68A      1.163448
      69A      1.223327    70A      1.274264    71A      1.274698
      72A      1.279365    73A      1.324311    74A      1.324403
      75A      1.355962    76A      1.365879    77A      1.366217
      78A      1.392453    79A      1.403505    80A      1.404616
      81A      1.416454    82A      1.417782    83A      1.427911
      84A      1.491490    85A      1.499076    86A      1.542299
      87A      1.543377    88A      1.574286    89A      1.574602
      90A      1.669826    91A      1.738985    92A      1.739817
      93A      1.768348    94A      1.830454    95A      1.832347
      96A      1.971714    97A      2.017787    98A      2.019118
      99A      2.019494   100A      2.051422   101A      2.053888
     102A      2.737986   103A      2.738981   104A      2.790930
     105A      2.811414   106A      2.889671   107A      2.890175
     108A      2.895016   109A      2.929477   110A      2.929519
     111A      2.958997   112A      2.964014   113A      2.964737
     114A      3.034017   115A      3.071148   116A      3.071408
     117A      3.084365   118A      3.168483   119A      3.169083
     120A      3.180600   121A      3.284985   122A      3.285645
     123A      3.326773   124A      3.327540   125A      3.375628
     126A      3.489911   127A      3.490378   128A      3.514024
     129A      3.525304   130A      3.567979   131A      3.568730
     132A      3.575250   133A      3.665618   134A      3.667113
     135A      3.679622   136A      3.693692   137A      3.694614
     138A      3.775563   139A      3.778043   140A      3.789163
     141A      3.911955   142A      3.912515   143A      4.034433
     144A      4.109998   145A      4.112697   146A      4.147040
     147A      4.149119   148A      4.173270   149A      4.201781
     150A      4.202951   151A      4.204027   152A      4.210926
     153A      4.314804   154A      4.317134   155A      4.359031
     156A      4.424058   157A      4.424878   158A      4.443444
     159A      4.516024   160A      4.517654   161A      4.577883
     162A      4.578618   163A      4.617551   164A      4.709455
     165A      4.773454   166A      4.775735   167A      4.836948
     168A      4.962863   169A      5.002118   170A      5.003781
     171A      5.228003   172A      5.244682   173A      5.248932
     174A      5.354146   175A      5.356923   176A      5.479383

    Beta Occupied:

       1A    -10.167891     2A    -10.167840     3A    -10.167593
       4A    -10.166519     5A     -0.781092     6A     -0.684104
       7A     -0.683876     8A     -0.511749     9A     -0.431110
      10A     -0.430982    11A     -0.421816    12A     -0.376738
      13A     -0.376628    14A     -0.362595    15A     -0.333188
      16A     -0.333054

    Beta Virtual:

      17A     -0.025743    18A      0.077080    19A      0.134887
      20A      0.135202    21A      0.144423    22A      0.144568
      23A      0.163338    24A      0.182345    25A      0.182556
      26A      0.215034    27A      0.218931    28A      0.282063
      29A      0.282605    30A      0.400352    31A      0.400443
      32A      0.419788    33A      0.426812    34A      0.427010
      35A      0.468499    36A      0.497488    37A      0.497812
      38A      0.513895    39A      0.556325    40A      0.584038
      41A      0.584692    42A      0.597474    43A      0.598144
      44A      0.610004    45A      0.628136    46A      0.631921
      47A      0.639422    48A      0.639661    49A      0.666639
      50A      0.667325    51A      0.686327    52A      0.686653
      53A      0.757518    54A      0.830330    55A      0.830810
      56A      0.855275    57A      0.922768    58A      0.923210
      59A      0.945961    60A      0.953533    61A      0.965962
      62A      0.967254    63A      1.008703    64A      1.131834
      65A      1.132425    66A      1.155589    67A      1.168193
      68A      1.168517    69A      1.232299    70A      1.279852
      71A      1.280301    72A      1.285121    73A      1.329301
      74A      1.329392    75A      1.365374    76A      1.371153
      77A      1.371430    78A      1.393513    79A      1.406922
      80A      1.408130    81A      1.421494    82A      1.422844
      83A      1.428180    84A      1.492538    85A      1.509519
      86A      1.546716    87A      1.547774    88A      1.582173
      89A      1.582460    90A      1.674672    91A      1.744745
      92A      1.745587    93A      1.779120    94A      1.834305
      95A      1.836207    96A      1.972575    97A      2.024952
      98A      2.025932    99A      2.039686   100A      2.058155
     101A      2.060591   102A      2.746340   103A      2.747300
     104A      2.811827   105A      2.816063   106A      2.902429
     107A      2.902850   108A      2.924664   109A      2.931937
     110A      2.932021   111A      2.960059   112A      2.968555
     113A      2.969289   114A      3.041950   115A      3.081009
     116A      3.081345   117A      3.086203   118A      3.184123
     119A      3.184933   120A      3.188291   121A      3.289769
     122A      3.290457   123A      3.330579   124A      3.331344
     125A      3.383445   126A      3.492678   127A      3.493070
     128A      3.512393   129A      3.528357   130A      3.574898
     131A      3.581420   132A      3.582167   133A      3.670361
     134A      3.671906   135A      3.692919   136A      3.725564
     137A      3.725965   138A      3.780135   139A      3.782530
     140A      3.817704   141A      3.921779   142A      3.922324
     143A      4.045319   144A      4.116925   145A      4.119401
     146A      4.154269   147A      4.156321   148A      4.187313
     149A      4.208007   150A      4.209652   151A      4.210952
     152A      4.215401   153A      4.322222   154A      4.324587
     155A      4.362399   156A      4.432298   157A      4.433067
     158A      4.446329   159A      4.523817   160A      4.525440
     161A      4.588479   162A      4.589220   163A      4.624749
     164A      4.719800   165A      4.780446   166A      4.782649
     167A      4.839867   168A      4.967658   169A      5.006169
     170A      5.007808   171A      5.233716   172A      5.246477
     173A      5.250707   174A      5.360607   175A      5.363422
     176A      5.481705

    Final Occupation by Irrep:
              A
    DOCC [    16 ]
    SOCC [     1 ]

  @DF-UKS Final Energy:  -157.81305843935780

   => Energetics <=

    Nuclear Repulsion Energy =            125.3946566441110235
    One-Electron Energy =                -458.7489446291203876
    Two-Electron Energy =                 195.8483757642664500
    DFT Exchange-Correlation Energy =     -20.3071462186148928
    Empirical Dispersion Energy =           0.0000000000000000
    VV10 Nonlocal Energy =                  0.0000000000000000
    Total Energy =                       -157.8130584393578033

  UHF NO Occupations:
  HONO-2 :   15  A 1.9996008
  HONO-1 :   16  A 1.9989804
  HONO-0 :   17  A 1.0000000
  LUNO+0 :   18  A 0.0010196
  LUNO+1 :   19  A 0.0003992
  LUNO+2 :   20  A 0.0001979
  LUNO+3 :   21  A 0.0001972

Computation Completed

Properties will be evaluated at   0.000000,   0.000000,   0.000000 [a0]

Properties computed using the SCF density matrix

  Nuclear Dipole Moment: [e a0]
     X:     0.8272      Y:    -0.0033      Z:    -0.0016

  Electronic Dipole Moment: [e a0]
     X:    -0.7493      Y:     0.0034      Z:     0.0023

  Dipole Moment: [e a0]
     X:     0.0779      Y:     0.0000      Z:     0.0006     Total:     0.0779

  Dipole Moment: [D]
     X:     0.1980      Y:     0.0001      Z:     0.0016     Total:     0.1980

*** tstop() called on n061 at Fri Nov  5 14:09:05 2021
Module time:
	user time   =     706.10 seconds =      11.77 minutes
	system time =      18.06 seconds =       0.30 minutes
	total time  =        182 seconds =       3.03 minutes
Total time:
	user time   =     706.10 seconds =      11.77 minutes
	system time =      18.06 seconds =       0.30 minutes
	total time  =        182 seconds =       3.03 minutes
Grab this energy -157.8130584393578
    Psi4 stopped on: Friday, 05 November 2021 02:09PM
    Psi4 wall time for execution: 0:03:01.97

*** Psi4 exiting successfully. Buy a developer a beer!
