                               Psi4 1.4a2.dev629

  ==> Input File <==

--------------------------------------------------------------------------
import os
memory 14 GB

molecule {
 C   -0.3233409392    0.0004953100   -0.0004939124
 C    0.0619125932   -1.4009187902   -2.4271582078
 C    0.0596426520    2.8018564938   -0.0000404226
 C    0.0617439793   -1.4002114269    2.4258519284
 H    2.0812555028   -1.6443068530   -2.8480941314
 H   -0.7615775826   -0.3897060696   -4.0233253271
 H   -0.7637229603   -3.2907780642   -2.3498947011
 H    2.0909218908    3.2876085091    0.0000280622
 H   -0.7674650364    3.6807964272    1.6737017749
 H   -0.7676451214    3.6798078578   -1.6730459649
 H    2.0884972220   -1.6438551709    2.8473660752
 H   -0.7675816665   -3.2967596881    2.3469061111
 H   -0.7652484104   -0.3840528488    4.0281987154
units bohr
0 2
}

basis {

assign 6-31g_2dfp_

[ 6-31g_2dfp_ ]

spherical

!----------------------------------------------------------------------
! Basis Set Exchange
! Version v0.8.13
! https://www.basissetexchange.org
!----------------------------------------------------------------------
!   Basis set: 6-31G(2df,p)
! Description: 6-31G(2df,p)
!        Role: orbital
!     Version: 0  (Data from the original Basis Set Exchange)
!----------------------------------------------------------------------

****
H     0
S    3   1.00
     18.7311370              0.03349460
      2.8253937              0.23472695
      0.6401217              0.81375733
S    1   1.00
      0.1612778              1.00000000
P    1   1.00
      1.5000000              1.0000000
P    1   1.00
      0.3750000              1.0000000
****
B     0
S    6   1.00
   2068.8823000              0.0018663
    310.6495700              0.0142515
     70.6830330              0.0695516
     19.8610800              0.2325729
      6.2993048              0.4670787
      2.1270270              0.3634314
SP   3   1.00
      4.7279710             -0.1303938              0.0745976
      1.1903377             -0.1307889              0.3078467
      0.3594117              1.1309444              0.7434568
SP   1   1.00
      0.1267512              1.0000000              1.0000000
D    1   1.00
      0.8020000              1.0000000
D    1   1.00
      0.2005000              1.0000000
F    1   1.00
      0.5000000              1.0000000
****
C     0
S    6   1.00
   3047.5249000              0.0018347
    457.3695100              0.0140373
    103.9486900              0.0688426
     29.2101550              0.2321844
      9.2866630              0.4679413
      3.1639270              0.3623120
SP   3   1.00
      7.8682724             -0.1193324              0.0689991
      1.8812885             -0.1608542              0.3164240
      0.5442493              1.1434564              0.7443083
SP   1   1.00
      0.1687144              1.0000000              1.0000000
D    1   1.00
      1.2520000              1.0000000
D    1   1.00
      0.3130000              1.0000000
F    1   1.00
      0.8000000              1.0000000
****
N     0
S    6   1.00
   4173.5110000              0.0018348
    627.4579000              0.0139950
    142.9021000              0.0685870
     40.2343300              0.2322410
     12.8202100              0.4690700
      4.3904370              0.3604550
SP   3   1.00
     11.6263580             -0.1149610              0.0675800
      2.7162800             -0.1691180              0.3239070
      0.7722180              1.1458520              0.7408950
SP   1   1.00
      0.2120313              1.0000000              1.0000000
D    1   1.00
      1.8260000              1.0000000
D    1   1.00
      0.4565000              1.0000000
F    1   1.00
      1.0000000              1.0000000
****
O     0
S    6   1.00
   5484.6717000              0.0018311
    825.2349500              0.0139501
    188.0469600              0.0684451
     52.9645000              0.2327143
     16.8975700              0.4701930
      5.7996353              0.3585209
SP   3   1.00
     15.5396160             -0.1107775              0.0708743
      3.5999336             -0.1480263              0.3397528
      1.0137618              1.1307670              0.7271586
SP   1   1.00
      0.2700058              1.0000000              1.0000000
D    1   1.00
      2.5840000              1.0000000
D    1   1.00
      0.6460000              1.0000000
F    1   1.00
      1.4000000              1.0000000
****
F     0
S    6   1.00
   7001.7130900              0.0018196169
   1051.3660900              0.0139160796
    239.2856900              0.0684053245
     67.3974453              0.233185760
     21.5199573              0.471267439
      7.40310130             0.356618546
SP   3   1.00
     20.8479528             -0.108506975            0.0716287243
      4.80830834            -0.146451658            0.3459121030
      1.34406986             1.128688580            0.7224699570
SP   1   1.00
      0.358151393            1.0000000              1.0000000
D    1   1.00
      3.5000000              1.0000000
D    1   1.00
      0.8750000              1.0000000
F    1   1.00
      1.8500000              1.0000000
****
Al     0
S    6   1.00
  13983.1000000              0.00194267
   2098.7500000              0.0148599
    477.7050000              0.0728494
    134.3600000              0.2468300
     42.8709000              0.4872580
     14.5189000              0.3234960
SP   6   1.00
    239.6680000             -0.00292619             0.00460285
     57.4419000             -0.0374080              0.0331990
     18.2859000             -0.1144870              0.1362820
      6.5991400              0.1156350              0.3304760
      2.4904900              0.6125950              0.4491460
      0.9445400              0.3937990              0.2657040
SP   3   1.00
      1.2779000             -0.2276060             -0.0175130
      0.3975900              0.00144583             0.2445330
      0.1600950              1.0927900              0.8049340
SP   1   1.00
      0.0556577              1.0000000              1.0000000
D    1   1.00
      0.6500000              1.0000000
D    1   1.00
      0.1625000              1.0000000
F    1   1.00
      0.2500000              1.0000000
****
Si     0
S    6   1.00
  16115.9000000              0.00195948
   2425.5800000              0.01492880
    553.8670000              0.07284780
    156.3400000              0.24613000
     50.0683000              0.48591400
     17.0178000              0.32500200
SP   6   1.00
    292.7180000             -0.00278094             0.00443826
     69.8731000             -0.03571460             0.03266790
     22.3363000             -0.11498500             0.13472100
      8.1503900              0.09356340             0.32867800
      3.1345800              0.60301700             0.44964000
      1.2254300              0.41895900             0.26137200
SP   3   1.00
      1.7273800             -0.24463000            -0.01779510
      0.5729220              0.00431572             0.25353900
      0.2221920              1.09818000             0.80066900
SP   1   1.00
      0.0778369              1.00000000             1.00000000
D    1   1.00
      0.9000000              1.0000000
D    1   1.00
      0.2250000              1.0000000
F    1   1.00
      0.3200000              1.0000000
****
P     0
S    6   1.00
  19413.3000000              0.0018516
   2909.4200000              0.0142062
    661.3640000              0.0699995
    185.7590000              0.2400790
     59.1943000              0.4847620
     20.0310000              0.3352000
SP   6   1.00
    339.4780000             -0.00278217             0.00456462
     81.0101000             -0.0360499              0.03369360
     25.8780000             -0.1166310              0.13975500
      9.4522100              0.0968328              0.33936200
      3.6656600              0.6144180              0.45092100
      1.4674600              0.4037980              0.23858600
SP   3   1.00
      2.1562300             -0.2529230             -0.01776530
      0.7489970              0.0328517              0.27405800
      0.2831450              1.0812500              0.78542100
SP   1   1.00
      0.0998317              1.0000000              1.00000000
D    1   1.00
      1.1000000              1.0000000
D    1   1.00
      0.2750000              1.0000000
F    1   1.00
      0.4500000              1.0000000
****
S     0
S    6   1.00
  21917.1000000              0.0018690
   3301.4900000              0.0142300
    754.1460000              0.0696960
    212.7110000              0.2384870
     67.9896000              0.4833070
     23.0515000              0.3380740
SP   6   1.00
    423.7350000             -0.0023767              0.0040610
    100.7100000             -0.0316930              0.0306810
     32.1599000             -0.1133170              0.1304520
     11.8079000              0.0560900              0.3272050
      4.6311000              0.5922550              0.4528510
      1.8702500              0.4550060              0.2560420
SP   3   1.00
      2.6158400             -0.2503740             -0.0145110
      0.9221670              0.0669570              0.3102630
      0.3412870              1.0545100              0.7544830
SP   1   1.00
      0.1171670              1.0000000              1.0000000
D    1   1.00
      1.3000000              1.0000000
D    1   1.00
      0.3250000              1.0000000
F    1   1.00
      0.5500000              1.0000000
****
Cl     0
S    6   1.00
  25180.1000000              0.0018330
   3780.3500000              0.0140340
    860.4740000              0.0690970
    242.1450000              0.2374520
     77.3349000              0.4830340
     26.2470000              0.3398560
SP   6   1.00
    491.7650000             -0.0022974              0.0039894
    116.9840000             -0.0307140              0.0303180
     37.4153000             -0.1125280              0.1298800
     13.7834000              0.0450160              0.3279510
      5.4521500              0.5893530              0.4535270
      2.2258800              0.4652060              0.2521540
SP   3   1.00
      3.1864900             -0.2518300             -0.0142990
      1.1442700              0.0615890              0.3235720
      0.4203770              1.0601800              0.7435070
SP   1   1.00
      0.1426570              1.0000000              1.0000000
D    1   1.00
      1.5000000              1.0000000
D    1   1.00
      0.3750000              1.0000000
F    1   1.00
      0.7000000              1.0000000
****
}

set {
reference uhf
freeze_core true
e_convergence 10
d_convergence 10
dft_spherical_points 1202
dft_radial_points 99
}

e = energy('b3lyp')

print_out('Grab this energy {0}'.format(e))
--------------------------------------------------------------------------

    Molecular point group: c1

    Geometry (in Bohr), charge = 0, multiplicity = 2:

       Center              X                  Y                   Z               Mass
    ------------   -----------------  -----------------  -----------------  -----------------
         C           -0.323340606017     0.000260452968    -0.000139396808    12.000000000000
         C            0.061912926383    -1.401153647232    -2.426803692208    12.000000000000
         C            0.059642985183     2.801621636768     0.000314092992    12.000000000000
         C            0.061744312483    -1.400446283932     2.426206443992    12.000000000000
         H            2.081255835983    -1.644541710032    -2.847739615808     1.007825032230
         H           -0.761577249417    -0.389940926632    -4.022970811508     1.007825032230
         H           -0.763722627117    -3.291012921232    -2.349540185508     1.007825032230
         H            2.090922223983     3.287373652068     0.000382577792     1.007825032230
         H           -0.767464703217     3.680561570168     1.674056290492     1.007825032230
         H           -0.767644788217     3.679573000768    -1.672691449308     1.007825032230
         H            2.088497555183    -1.644090027932     2.847720590792     1.007825032230
         H           -0.767581333317    -3.296994545132     2.347260626692     1.007825032230
         H           -0.765248077217    -0.384287705832     4.028553230992     1.007825032230

  Charge       = 0
  Multiplicity = 2
  Basis Set: ANONYMOUSF9D31624
    Blend: 6-31G_2DFP_
  Basis Set: (ANONYMOUSF9D31624 AUX)
    Blend: DEF2-UNIVERSAL-JKFIT

    Orbital Energies [Eh]
    ---------------------

    Alpha Occupied:

       1A    -10.180342     2A    -10.167583     3A    -10.167041
       4A    -10.166420     5A     -0.797767     6A     -0.686511
       7A     -0.685867     8A     -0.530777     9A     -0.441127
      10A     -0.434761    11A     -0.434580    12A     -0.382822
      13A     -0.382374    14A     -0.363612    15A     -0.338043
      16A     -0.337954    17A     -0.168961

    Alpha Virtual:

      18A      0.076069    19A      0.133978    20A      0.134315
      21A      0.142510    22A      0.142754    23A      0.154876
      24A      0.178444    25A      0.179118    26A      0.203548
      27A      0.214806    28A      0.275897    29A      0.276075
      30A      0.399142    31A      0.399314    32A      0.403344
      33A      0.423970    34A      0.424224    35A      0.456591
      36A      0.495230    37A      0.495547    38A      0.512162
      39A      0.513980    40A      0.578598    41A      0.579028
      42A      0.591299    43A      0.591938    44A      0.602602
      45A      0.624766    46A      0.631667    47A      0.635959
      48A      0.636645    49A      0.663005    50A      0.663835
      51A      0.683509    52A      0.684215    53A      0.734995
      54A      0.825002    55A      0.825794    56A      0.853922
      57A      0.914814    58A      0.915237    59A      0.944129
      60A      0.944608    61A      0.961028    62A      0.961572
      63A      1.003454    64A      1.127774    65A      1.128442
      66A      1.142213    67A      1.163119    68A      1.163425
      69A      1.223326    70A      1.274244    71A      1.274717
      72A      1.279369    73A      1.323996    74A      1.324710
      75A      1.355947    76A      1.365784    77A      1.366315
      78A      1.392452    79A      1.403467    80A      1.404639
      81A      1.416496    82A      1.417730    83A      1.427915
      84A      1.491488    85A      1.499082    86A      1.542384
      87A      1.543299    88A      1.574129    89A      1.574768
      90A      1.669793    91A      1.739181    92A      1.739587
      93A      1.768361    94A      1.829665    95A      1.833201
      96A      1.971686    97A      2.017914    98A      2.018845
      99A      2.019621   100A      2.051741   101A      2.053622
     102A      2.737879   103A      2.739092   104A      2.790925
     105A      2.811427   106A      2.889675   107A      2.890154
     108A      2.895010   109A      2.929389   110A      2.929602
     111A      2.959009   112A      2.963762   113A      2.965005
     114A      3.034029   115A      3.071066   116A      3.071485
     117A      3.084396   118A      3.168525   119A      3.169034
     120A      3.180608   121A      3.284984   122A      3.285653
     123A      3.326961   124A      3.327360   125A      3.375619
     126A      3.489313   127A      3.491001   128A      3.514017
     129A      3.525340   130A      3.568260   131A      3.568476
     132A      3.575205   133A      3.665366   134A      3.667318
     135A      3.679643   136A      3.693700   137A      3.694610
     138A      3.776226   139A      3.777400   140A      3.789130
     141A      3.911761   142A      3.912678   143A      4.034421
     144A      4.110467   145A      4.112121   146A      4.146056
     147A      4.150035   148A      4.173305   149A      4.200163
     150A      4.204022   151A      4.204488   152A      4.211255
     153A      4.314869   154A      4.317103   155A      4.358951
     156A      4.424085   157A      4.424752   158A      4.443548
     159A      4.516115   160A      4.517549   161A      4.577832
     162A      4.578735   163A      4.617559   164A      4.709486
     165A      4.774131   166A      4.775063   167A      4.836869
     168A      4.962871   169A      5.002024   170A      5.003912
     171A      5.227819   172A      5.242511   173A      5.251065
     174A      5.352276   175A      5.358984   176A      5.479460

    Beta Occupied:

       1A    -10.168343     2A    -10.167803     3A    -10.167181
       4A    -10.166516     5A     -0.781092     6A     -0.684313
       7A     -0.683670     8A     -0.511748     9A     -0.431142
      10A     -0.430947    11A     -0.421821    12A     -0.376918
      13A     -0.376447    14A     -0.362596    15A     -0.333156
      16A     -0.333087

    Beta Virtual:

      17A     -0.025744    18A      0.077078    19A      0.134870
      20A      0.135206    21A      0.144435    22A      0.144569
      23A      0.163333    24A      0.182119    25A      0.182787
      26A      0.215035    27A      0.218930    28A      0.282241
      29A      0.282427    30A      0.400309    31A      0.400486
      32A      0.419790    33A      0.426780    34A      0.427037
      35A      0.468499    36A      0.497483    37A      0.497816
      38A      0.513897    39A      0.556324    40A      0.584156
      41A      0.584569    42A      0.597487    43A      0.598118
      44A      0.610017    45A      0.628143    46A      0.631875
      47A      0.639216    48A      0.639908    49A      0.666591
      50A      0.667380    51A      0.686183    52A      0.686811
      53A      0.757518    54A      0.830145    55A      0.830987
      56A      0.855278    57A      0.922799    58A      0.923194
      59A      0.945967    60A      0.953537    61A      0.966344
      62A      0.966868    63A      1.008694    64A      1.131791
      65A      1.132482    66A      1.155586    67A      1.168160
      68A      1.168535    69A      1.232298    70A      1.279830
      71A      1.280325    72A      1.285124    73A      1.328938
      74A      1.329746    75A      1.365350    76A      1.371050
      77A      1.371545    78A      1.393513    79A      1.406889
      80A      1.408149    81A      1.421509    82A      1.422819
      83A      1.428184    84A      1.492537    85A      1.509524
      86A      1.546795    87A      1.547701    88A      1.582016
      89A      1.582628    90A      1.674638    91A      1.744961
      92A      1.745342    93A      1.779131    94A      1.833544
      95A      1.837034    96A      1.972551    97A      2.024967
      98A      2.025906    99A      2.039666   100A      2.058502
     101A      2.060304   102A      2.746211   103A      2.747432
     104A      2.811839   105A      2.816061   106A      2.902435
     107A      2.902824   108A      2.924657   109A      2.931906
     110A      2.932050   111A      2.960073   112A      2.968266
     113A      2.969594   114A      3.041961   115A      3.080890
     116A      3.081421   117A      3.086274   118A      3.184135
     119A      3.184894   120A      3.188320   121A      3.289767
     122A      3.290467   123A      3.330745   124A      3.331186
     125A      3.383436   126A      3.492083   127A      3.493693
     128A      3.512383   129A      3.528385   130A      3.574944
     131A      3.581570   132A      3.581961   133A      3.670033
     134A      3.672166   135A      3.692968   136A      3.725280
     137A      3.726242   138A      3.780784   139A      3.781903
     140A      3.817671   141A      3.921584   142A      3.922488
     143A      4.045303   144A      4.117451   145A      4.118745
     146A      4.153497   147A      4.157052   148A      4.187345
     149A      4.206712   150A      4.210039   151A      4.211765
     152A      4.215745   153A      4.322377   154A      4.324468
     155A      4.362316   156A      4.432331   157A      4.432886
     158A      4.446482   159A      4.523920   160A      4.525326
     161A      4.588471   162A      4.589294   163A      4.624752
     164A      4.719830   165A      4.781075   166A      4.782025
     167A      4.839786   168A      4.967667   169A      5.006089
     170A      5.007925   171A      5.233531   172A      5.244303
     173A      5.252849   174A      5.358765   175A      5.365451
     176A      5.481781

    Final Occupation by Irrep:
              A
    DOCC [    16 ]
    SOCC [     1 ]

  @DF-UKS Final Energy:  -157.81304740873773

   => Energetics <=

    Nuclear Repulsion Energy =            125.3946866942918206
    One-Electron Energy =                -458.7489737599303226
    Two-Electron Energy =                 195.8483902513336545
    DFT Exchange-Correlation Energy =     -20.3071505944328692
    Empirical Dispersion Energy =           0.0000000000000000
    VV10 Nonlocal Energy =                  0.0000000000000000
    Total Energy =                       -157.8130474087377308

  UHF NO Occupations:
  HONO-2 :   15  A 1.9996008
  HONO-1 :   16  A 1.9989804
  HONO-0 :   17  A 1.0000000
  LUNO+0 :   18  A 0.0010196
  LUNO+1 :   19  A 0.0003992
  LUNO+2 :   20  A 0.0001976
  LUNO+3 :   21  A 0.0001975

Computation Completed

Properties will be evaluated at   0.000000,   0.000000,   0.000000 [a0]

Properties computed using the SCF density matrix

  Nuclear Dipole Moment: [e a0]
     X:     0.8272      Y:    -0.0017      Z:     0.0025

  Electronic Dipole Moment: [e a0]
     X:    -0.7493      Y:     0.0023      Z:    -0.0049

  Dipole Moment: [e a0]
     X:     0.0779      Y:     0.0006      Z:    -0.0024     Total:     0.0780

  Dipole Moment: [D]
     X:     0.1980      Y:     0.0016      Z:    -0.0062     Total:     0.1981

*** tstop() called on n054 at Fri Nov  5 14:15:52 2021
Module time:
	user time   =     541.96 seconds =       9.03 minutes
	system time =      12.28 seconds =       0.20 minutes
	total time  =        139 seconds =       2.32 minutes
Total time:
	user time   =     541.96 seconds =       9.03 minutes
	system time =      12.28 seconds =       0.20 minutes
	total time  =        139 seconds =       2.32 minutes
Grab this energy -157.81304740873773
    Psi4 stopped on: Friday, 05 November 2021 02:15PM
    Psi4 wall time for execution: 0:02:19.49

*** Psi4 exiting successfully. Buy a developer a beer!
