                               Psi4 1.4a2.dev629

  ==> Input File <==

--------------------------------------------------------------------------
import os
memory 14 GB

molecule {
 C   -0.3233385250   -0.0000023158   -0.0010210129
 C    0.0617883995   -1.4023230346   -2.4251513312
 C    0.0610214253    2.8017588670    0.0008358509
 C    0.0604926601   -1.3994301602    2.4276098516
 H    2.0868669378   -1.6460897988   -2.8463868317
 H   -0.7678806882   -0.3869079224   -4.0268500043
 H   -0.7634640294   -3.2900820398   -2.3496327770
 H    2.0867965286    3.2880998433   -0.0033007027
 H   -0.7681567410    3.6808494838    1.6779798924
 H   -0.7631360786    3.6796532446   -1.6750202804
 H    2.0870093414   -1.6421055822    2.8484947476
 H   -0.7676725685   -3.2939143555    2.3483343141
 H   -0.7629345387   -0.3895305433    4.0241082835
units bohr
0 2
}

basis {

assign 6-31g_2dfp_

[ 6-31g_2dfp_ ]

spherical

!----------------------------------------------------------------------
! Basis Set Exchange
! Version v0.8.13
! https://www.basissetexchange.org
!----------------------------------------------------------------------
!   Basis set: 6-31G(2df,p)
! Description: 6-31G(2df,p)
!        Role: orbital
!     Version: 0  (Data from the original Basis Set Exchange)
!----------------------------------------------------------------------

****
H     0
S    3   1.00
     18.7311370              0.03349460
      2.8253937              0.23472695
      0.6401217              0.81375733
S    1   1.00
      0.1612778              1.00000000
P    1   1.00
      1.5000000              1.0000000
P    1   1.00
      0.3750000              1.0000000
****
B     0
S    6   1.00
   2068.8823000              0.0018663
    310.6495700              0.0142515
     70.6830330              0.0695516
     19.8610800              0.2325729
      6.2993048              0.4670787
      2.1270270              0.3634314
SP   3   1.00
      4.7279710             -0.1303938              0.0745976
      1.1903377             -0.1307889              0.3078467
      0.3594117              1.1309444              0.7434568
SP   1   1.00
      0.1267512              1.0000000              1.0000000
D    1   1.00
      0.8020000              1.0000000
D    1   1.00
      0.2005000              1.0000000
F    1   1.00
      0.5000000              1.0000000
****
C     0
S    6   1.00
   3047.5249000              0.0018347
    457.3695100              0.0140373
    103.9486900              0.0688426
     29.2101550              0.2321844
      9.2866630              0.4679413
      3.1639270              0.3623120
SP   3   1.00
      7.8682724             -0.1193324              0.0689991
      1.8812885             -0.1608542              0.3164240
      0.5442493              1.1434564              0.7443083
SP   1   1.00
      0.1687144              1.0000000              1.0000000
D    1   1.00
      1.2520000              1.0000000
D    1   1.00
      0.3130000              1.0000000
F    1   1.00
      0.8000000              1.0000000
****
N     0
S    6   1.00
   4173.5110000              0.0018348
    627.4579000              0.0139950
    142.9021000              0.0685870
     40.2343300              0.2322410
     12.8202100              0.4690700
      4.3904370              0.3604550
SP   3   1.00
     11.6263580             -0.1149610              0.0675800
      2.7162800             -0.1691180              0.3239070
      0.7722180              1.1458520              0.7408950
SP   1   1.00
      0.2120313              1.0000000              1.0000000
D    1   1.00
      1.8260000              1.0000000
D    1   1.00
      0.4565000              1.0000000
F    1   1.00
      1.0000000              1.0000000
****
O     0
S    6   1.00
   5484.6717000              0.0018311
    825.2349500              0.0139501
    188.0469600              0.0684451
     52.9645000              0.2327143
     16.8975700              0.4701930
      5.7996353              0.3585209
SP   3   1.00
     15.5396160             -0.1107775              0.0708743
      3.5999336             -0.1480263              0.3397528
      1.0137618              1.1307670              0.7271586
SP   1   1.00
      0.2700058              1.0000000              1.0000000
D    1   1.00
      2.5840000              1.0000000
D    1   1.00
      0.6460000              1.0000000
F    1   1.00
      1.4000000              1.0000000
****
F     0
S    6   1.00
   7001.7130900              0.0018196169
   1051.3660900              0.0139160796
    239.2856900              0.0684053245
     67.3974453              0.233185760
     21.5199573              0.471267439
      7.40310130             0.356618546
SP   3   1.00
     20.8479528             -0.108506975            0.0716287243
      4.80830834            -0.146451658            0.3459121030
      1.34406986             1.128688580            0.7224699570
SP   1   1.00
      0.358151393            1.0000000              1.0000000
D    1   1.00
      3.5000000              1.0000000
D    1   1.00
      0.8750000              1.0000000
F    1   1.00
      1.8500000              1.0000000
****
Al     0
S    6   1.00
  13983.1000000              0.00194267
   2098.7500000              0.0148599
    477.7050000              0.0728494
    134.3600000              0.2468300
     42.8709000              0.4872580
     14.5189000              0.3234960
SP   6   1.00
    239.6680000             -0.00292619             0.00460285
     57.4419000             -0.0374080              0.0331990
     18.2859000             -0.1144870              0.1362820
      6.5991400              0.1156350              0.3304760
      2.4904900              0.6125950              0.4491460
      0.9445400              0.3937990              0.2657040
SP   3   1.00
      1.2779000             -0.2276060             -0.0175130
      0.3975900              0.00144583             0.2445330
      0.1600950              1.0927900              0.8049340
SP   1   1.00
      0.0556577              1.0000000              1.0000000
D    1   1.00
      0.6500000              1.0000000
D    1   1.00
      0.1625000              1.0000000
F    1   1.00
      0.2500000              1.0000000
****
Si     0
S    6   1.00
  16115.9000000              0.00195948
   2425.5800000              0.01492880
    553.8670000              0.07284780
    156.3400000              0.24613000
     50.0683000              0.48591400
     17.0178000              0.32500200
SP   6   1.00
    292.7180000             -0.00278094             0.00443826
     69.8731000             -0.03571460             0.03266790
     22.3363000             -0.11498500             0.13472100
      8.1503900              0.09356340             0.32867800
      3.1345800              0.60301700             0.44964000
      1.2254300              0.41895900             0.26137200
SP   3   1.00
      1.7273800             -0.24463000            -0.01779510
      0.5729220              0.00431572             0.25353900
      0.2221920              1.09818000             0.80066900
SP   1   1.00
      0.0778369              1.00000000             1.00000000
D    1   1.00
      0.9000000              1.0000000
D    1   1.00
      0.2250000              1.0000000
F    1   1.00
      0.3200000              1.0000000
****
P     0
S    6   1.00
  19413.3000000              0.0018516
   2909.4200000              0.0142062
    661.3640000              0.0699995
    185.7590000              0.2400790
     59.1943000              0.4847620
     20.0310000              0.3352000
SP   6   1.00
    339.4780000             -0.00278217             0.00456462
     81.0101000             -0.0360499              0.03369360
     25.8780000             -0.1166310              0.13975500
      9.4522100              0.0968328              0.33936200
      3.6656600              0.6144180              0.45092100
      1.4674600              0.4037980              0.23858600
SP   3   1.00
      2.1562300             -0.2529230             -0.01776530
      0.7489970              0.0328517              0.27405800
      0.2831450              1.0812500              0.78542100
SP   1   1.00
      0.0998317              1.0000000              1.00000000
D    1   1.00
      1.1000000              1.0000000
D    1   1.00
      0.2750000              1.0000000
F    1   1.00
      0.4500000              1.0000000
****
S     0
S    6   1.00
  21917.1000000              0.0018690
   3301.4900000              0.0142300
    754.1460000              0.0696960
    212.7110000              0.2384870
     67.9896000              0.4833070
     23.0515000              0.3380740
SP   6   1.00
    423.7350000             -0.0023767              0.0040610
    100.7100000             -0.0316930              0.0306810
     32.1599000             -0.1133170              0.1304520
     11.8079000              0.0560900              0.3272050
      4.6311000              0.5922550              0.4528510
      1.8702500              0.4550060              0.2560420
SP   3   1.00
      2.6158400             -0.2503740             -0.0145110
      0.9221670              0.0669570              0.3102630
      0.3412870              1.0545100              0.7544830
SP   1   1.00
      0.1171670              1.0000000              1.0000000
D    1   1.00
      1.3000000              1.0000000
D    1   1.00
      0.3250000              1.0000000
F    1   1.00
      0.5500000              1.0000000
****
Cl     0
S    6   1.00
  25180.1000000              0.0018330
   3780.3500000              0.0140340
    860.4740000              0.0690970
    242.1450000              0.2374520
     77.3349000              0.4830340
     26.2470000              0.3398560
SP   6   1.00
    491.7650000             -0.0022974              0.0039894
    116.9840000             -0.0307140              0.0303180
     37.4153000             -0.1125280              0.1298800
     13.7834000              0.0450160              0.3279510
      5.4521500              0.5893530              0.4535270
      2.2258800              0.4652060              0.2521540
SP   3   1.00
      3.1864900             -0.2518300             -0.0142990
      1.1442700              0.0615890              0.3235720
      0.4203770              1.0601800              0.7435070
SP   1   1.00
      0.1426570              1.0000000              1.0000000
D    1   1.00
      1.5000000              1.0000000
D    1   1.00
      0.3750000              1.0000000
F    1   1.00
      0.7000000              1.0000000
****
}

set {
reference uhf
freeze_core true
e_convergence 10
d_convergence 10
dft_spherical_points 1202
dft_radial_points 99
}

e = energy('b3lyp')

print_out('Grab this energy {0}'.format(e))
--------------------------------------------------------------------------

    Molecular point group: c1

    Geometry (in Bohr), charge = 0, multiplicity = 2:

       Center              X                  Y                   Z               Mass
    ------------   -----------------  -----------------  -----------------  -----------------
         C           -0.323339284786    -0.000002532900    -0.001458878100    12.000000000000
         C            0.061787639714    -1.402323251700    -2.425589196400    12.000000000000
         C            0.061020665514     2.801758649900     0.000397985700    12.000000000000
         C            0.060491900314    -1.399430377300     2.427171986400    12.000000000000
         H            2.086866178014    -1.646090015900    -2.846824696900     1.007825032230
         H           -0.767881447986    -0.386908139500    -4.027287869500     1.007825032230
         H           -0.763464789186    -3.290082256900    -2.350070642200     1.007825032230
         H            2.086795768814     3.288099626200    -0.003738567900     1.007825032230
         H           -0.768157500786     3.680849266700     1.677542027200     1.007825032230
         H           -0.763136838386     3.679653027500    -1.675458145600     1.007825032230
         H            2.087008581614    -1.642105799300     2.848056882400     1.007825032230
         H           -0.767673328286    -3.293914572600     2.347896448900     1.007825032230
         H           -0.762935298486    -0.389530760400     4.023670418300     1.007825032230

  Charge       = 0
  Multiplicity = 2
  Basis Set: ANONYMOUS47649487
    Blend: 6-31G_2DFP_
  Basis Set: (ANONYMOUS47649487 AUX)
    Blend: DEF2-UNIVERSAL-JKFIT

    Orbital Energies [Eh]
    ---------------------

    Alpha Occupied:

       1A    -10.180342     2A    -10.167049     3A    -10.167020
       4A    -10.166975     5A     -0.797766     6A     -0.686267
       7A     -0.686108     8A     -0.530778     9A     -0.441125
      10A     -0.434680    11A     -0.434663    12A     -0.382638
      13A     -0.382561    14A     -0.363608    15A     -0.338292
      16A     -0.337705    17A     -0.168961

    Alpha Virtual:

      18A      0.076071    19A      0.134107    20A      0.134183
      21A      0.142571    22A      0.142699    23A      0.154878
      24A      0.178730    25A      0.178831    26A      0.203545
      27A      0.214805    28A      0.275860    29A      0.276112
      30A      0.399120    31A      0.399338    32A      0.403342
      33A      0.424092    34A      0.424102    35A      0.456591
      36A      0.495355    37A      0.495425    38A      0.512159
      39A      0.513980    40A      0.578775    41A      0.578859
      42A      0.591614    43A      0.591652    44A      0.602570
      45A      0.624716    46A      0.631822    47A      0.636242
      48A      0.636247    49A      0.663323    50A      0.663501
      51A      0.683851    52A      0.683877    53A      0.734994
      54A      0.825403    55A      0.825410    56A      0.853915
      57A      0.914922    58A      0.915132    59A      0.944100
      60A      0.944639    61A      0.961226    62A      0.961353
      63A      1.003456    64A      1.128095    65A      1.128132
      66A      1.142208    67A      1.163248    68A      1.163293
      69A      1.223322    70A      1.274310    71A      1.274670
      72A      1.279352    73A      1.324287    74A      1.324401
      75A      1.355985    76A      1.365816    77A      1.366290
      78A      1.392450    79A      1.403816    80A      1.404299
      81A      1.416856    82A      1.417383    83A      1.427917
      84A      1.491457    85A      1.499104    86A      1.542653
      87A      1.542995    88A      1.574137    89A      1.574772
      90A      1.669826    91A      1.739296    92A      1.739511
      93A      1.768330    94A      1.831335    95A      1.831476
      96A      1.971695    97A      2.018172    98A      2.018752
      99A      2.019514   100A      2.052044   101A      2.053248
     102A      2.738436   103A      2.738531   104A      2.790922
     105A      2.811430   106A      2.889284   107A      2.890624
     108A      2.894936   109A      2.929328   110A      2.929662
     111A      2.958992   112A      2.964095   113A      2.964679
     114A      3.033996   115A      3.071158   116A      3.071423
     117A      3.084369   118A      3.168652   119A      3.168890
     120A      3.180611   121A      3.285087   122A      3.285523
     123A      3.327125   124A      3.327216   125A      3.375618
     126A      3.490125   127A      3.490204   128A      3.514006
     129A      3.525338   130A      3.568289   131A      3.568490
     132A      3.575139   133A      3.666161   134A      3.666575
     135A      3.679705   136A      3.694101   137A      3.694144
     138A      3.776794   139A      3.776820   140A      3.789114
     141A      3.911872   142A      3.912579   143A      4.034451
     144A      4.111087   145A      4.111528   146A      4.147985
     147A      4.148360   148A      4.173122   149A      4.202560
     150A      4.203089   151A      4.203149   152A      4.211007
     153A      4.315166   154A      4.316744   155A      4.358963
     156A      4.423883   157A      4.425003   158A      4.443472
     159A      4.516657   160A      4.517029   161A      4.577986
     162A      4.578563   163A      4.617528   164A      4.709461
     165A      4.774449   166A      4.774756   167A      4.836907
     168A      4.962876   169A      5.002673   170A      5.003235
     171A      5.228018   172A      5.246505   173A      5.246984
     174A      5.355557   175A      5.355623   176A      5.479384

    Beta Occupied:

       1A    -10.167804     2A    -10.167776     3A    -10.167743
       4A    -10.166519     5A     -0.781091     6A     -0.684067
       7A     -0.683914     8A     -0.511749     9A     -0.431058
      10A     -0.431028    11A     -0.421821    12A     -0.376730
      13A     -0.376639    14A     -0.362592    15A     -0.333415
      16A     -0.332829

    Beta Virtual:

      17A     -0.025742    18A      0.077080    19A      0.134985
      20A      0.135085    21A      0.144460    22A      0.144551
      23A      0.163337    24A      0.182413    25A      0.182490
      26A      0.215028    27A      0.218935    28A      0.282222
      29A      0.282445    30A      0.400289    31A      0.400507
      32A      0.419789    33A      0.426903    34A      0.426914
      35A      0.468499    36A      0.497618    37A      0.497683
      38A      0.513896    39A      0.556324    40A      0.584325
      41A      0.584409    42A      0.597784    43A      0.597841
      44A      0.609991    45A      0.628062    46A      0.632012
      47A      0.639527    48A      0.639531    49A      0.666883
      50A      0.667070    51A      0.686484    52A      0.686512
      53A      0.757518    54A      0.830574    55A      0.830576
      56A      0.855269    57A      0.922893    58A      0.923104
      59A      0.945959    60A      0.953545    61A      0.966541
      62A      0.966649    63A      1.008696    64A      1.132133
      65A      1.132150    66A      1.155579    67A      1.168313
      68A      1.168382    69A      1.232295    70A      1.279881
      71A      1.280293    72A      1.285107    73A      1.329265
      74A      1.329400    75A      1.365401    76A      1.371034
      77A      1.371559    78A      1.393511    79A      1.407271
      80A      1.407774    81A      1.421926    82A      1.422411
      83A      1.428189    84A      1.492519    85A      1.509534
      86A      1.547049    87A      1.547417    88A      1.582015
      89A      1.582634    90A      1.674672    91A      1.745059
      92A      1.745272    93A      1.779109    94A      1.835193
      95A      1.835330    96A      1.972569    97A      2.025040
      98A      2.025857    99A      2.039705   100A      2.058738
     101A      2.059984   102A      2.746778   103A      2.746860
     104A      2.811837   105A      2.816062   106A      2.901985
     107A      2.903297   108A      2.924643   109A      2.931776
     110A      2.932178   111A      2.960056   112A      2.968650
     113A      2.969210   114A      3.041927   115A      3.081061
     116A      3.081342   117A      3.086189   118A      3.184366
     119A      3.184650   120A      3.188318   121A      3.289916
     122A      3.290291   123A      3.330918   124A      3.331034
     125A      3.383436   126A      3.492840   127A      3.492949
     128A      3.512374   129A      3.528379   130A      3.574991
     131A      3.581678   132A      3.581792   133A      3.670820
     134A      3.671424   135A      3.692987   136A      3.725577
     137A      3.725929   138A      3.781277   139A      3.781388
     140A      3.817660   141A      3.921667   142A      3.922417
     143A      4.045338   144A      4.117897   145A      4.118337
     146A      4.155238   147A      4.155542   148A      4.187136
     149A      4.208976   150A      4.209053   151A      4.210583
     152A      4.215550   153A      4.322576   154A      4.324220
     155A      4.362325   156A      4.432095   157A      4.433210
     158A      4.446364   159A      4.524462   160A      4.524805
     161A      4.588610   162A      4.589142   163A      4.624720
     164A      4.719806   165A      4.781421   166A      4.781689
     167A      4.839824   168A      4.967670   169A      5.006711
     170A      5.007275   171A      5.233732   172A      5.248303
     173A      5.248765   174A      5.362018   175A      5.362114
     176A      5.481705

    Final Occupation by Irrep:
              A
    DOCC [    16 ]
    SOCC [     1 ]

  @DF-UKS Final Energy:  -157.81305907611690

   => Energetics <=

    Nuclear Repulsion Energy =            125.3946454379495634
    One-Electron Energy =                -458.7489245875476627
    Two-Electron Energy =                 195.8483660015195085
    DFT Exchange-Correlation Energy =     -20.3071459280383309
    Empirical Dispersion Energy =           0.0000000000000000
    VV10 Nonlocal Energy =                  0.0000000000000000
    Total Energy =                       -157.8130590761169003

  UHF NO Occupations:
  HONO-2 :   15  A 1.9996009
  HONO-1 :   16  A 1.9989805
  HONO-0 :   17  A 1.0000000
  LUNO+0 :   18  A 0.0010195
  LUNO+1 :   19  A 0.0003991
  LUNO+2 :   20  A 0.0001980
  LUNO+3 :   21  A 0.0001971

Computation Completed

Properties will be evaluated at   0.000000,   0.000000,   0.000000 [a0]

Properties computed using the SCF density matrix

  Nuclear Dipole Moment: [e a0]
     X:     0.8272      Y:    -0.0000      Z:    -0.0031

  Electronic Dipole Moment: [e a0]
     X:    -0.7493      Y:     0.0000      Z:     0.0030

  Dipole Moment: [e a0]
     X:     0.0779      Y:     0.0000      Z:    -0.0000     Total:     0.0779

  Dipole Moment: [D]
     X:     0.1980      Y:     0.0000      Z:    -0.0001     Total:     0.1980

*** tstop() called on n040 at Fri Nov  5 12:05:45 2021
Module time:
	user time   =     633.86 seconds =      10.56 minutes
	system time =      12.32 seconds =       0.21 minutes
	total time  =        162 seconds =       2.70 minutes
Total time:
	user time   =     633.86 seconds =      10.56 minutes
	system time =      12.32 seconds =       0.21 minutes
	total time  =        162 seconds =       2.70 minutes
Grab this energy -157.8130590761169
    Psi4 stopped on: Friday, 05 November 2021 12:05PM
    Psi4 wall time for execution: 0:02:42.46

*** Psi4 exiting successfully. Buy a developer a beer!
