                               Psi4 1.4a2.dev629

  ==> Input File <==

--------------------------------------------------------------------------
import os
memory 14 GB

molecule {
 C   -0.3233404306   -0.0002276202   -0.0004950591
 C    0.0611404429   -1.4010273818   -2.4258442095
 C    0.0611873356    2.8040285140   -0.0000411740
 C    0.0609723649   -1.4003200200    2.4245355552
 H    2.0832753337   -1.6443573507   -2.8481814717
 H   -0.7634501443   -0.3912035559   -4.0233241863
 H   -0.7636278099   -3.2890425561   -2.3508514609
 H    2.0868773828    3.2874215744    0.0000273301
 H   -0.7656843772    3.6800887601    1.6769800158
 H   -0.7658649175    3.6791005166   -1.6763243240
 H    2.0905179985   -1.6439030308    2.8474518017
 H   -0.7674864097   -3.2950259984    2.3478694811
 H   -0.7671246460   -0.3855561648    4.0281977018
units bohr
0 2
}

basis {

assign 6-31g_2dfp_

[ 6-31g_2dfp_ ]

spherical

!----------------------------------------------------------------------
! Basis Set Exchange
! Version v0.8.13
! https://www.basissetexchange.org
!----------------------------------------------------------------------
!   Basis set: 6-31G(2df,p)
! Description: 6-31G(2df,p)
!        Role: orbital
!     Version: 0  (Data from the original Basis Set Exchange)
!----------------------------------------------------------------------

****
H     0
S    3   1.00
     18.7311370              0.03349460
      2.8253937              0.23472695
      0.6401217              0.81375733
S    1   1.00
      0.1612778              1.00000000
P    1   1.00
      1.5000000              1.0000000
P    1   1.00
      0.3750000              1.0000000
****
B     0
S    6   1.00
   2068.8823000              0.0018663
    310.6495700              0.0142515
     70.6830330              0.0695516
     19.8610800              0.2325729
      6.2993048              0.4670787
      2.1270270              0.3634314
SP   3   1.00
      4.7279710             -0.1303938              0.0745976
      1.1903377             -0.1307889              0.3078467
      0.3594117              1.1309444              0.7434568
SP   1   1.00
      0.1267512              1.0000000              1.0000000
D    1   1.00
      0.8020000              1.0000000
D    1   1.00
      0.2005000              1.0000000
F    1   1.00
      0.5000000              1.0000000
****
C     0
S    6   1.00
   3047.5249000              0.0018347
    457.3695100              0.0140373
    103.9486900              0.0688426
     29.2101550              0.2321844
      9.2866630              0.4679413
      3.1639270              0.3623120
SP   3   1.00
      7.8682724             -0.1193324              0.0689991
      1.8812885             -0.1608542              0.3164240
      0.5442493              1.1434564              0.7443083
SP   1   1.00
      0.1687144              1.0000000              1.0000000
D    1   1.00
      1.2520000              1.0000000
D    1   1.00
      0.3130000              1.0000000
F    1   1.00
      0.8000000              1.0000000
****
N     0
S    6   1.00
   4173.5110000              0.0018348
    627.4579000              0.0139950
    142.9021000              0.0685870
     40.2343300              0.2322410
     12.8202100              0.4690700
      4.3904370              0.3604550
SP   3   1.00
     11.6263580             -0.1149610              0.0675800
      2.7162800             -0.1691180              0.3239070
      0.7722180              1.1458520              0.7408950
SP   1   1.00
      0.2120313              1.0000000              1.0000000
D    1   1.00
      1.8260000              1.0000000
D    1   1.00
      0.4565000              1.0000000
F    1   1.00
      1.0000000              1.0000000
****
O     0
S    6   1.00
   5484.6717000              0.0018311
    825.2349500              0.0139501
    188.0469600              0.0684451
     52.9645000              0.2327143
     16.8975700              0.4701930
      5.7996353              0.3585209
SP   3   1.00
     15.5396160             -0.1107775              0.0708743
      3.5999336             -0.1480263              0.3397528
      1.0137618              1.1307670              0.7271586
SP   1   1.00
      0.2700058              1.0000000              1.0000000
D    1   1.00
      2.5840000              1.0000000
D    1   1.00
      0.6460000              1.0000000
F    1   1.00
      1.4000000              1.0000000
****
F     0
S    6   1.00
   7001.7130900              0.0018196169
   1051.3660900              0.0139160796
    239.2856900              0.0684053245
     67.3974453              0.233185760
     21.5199573              0.471267439
      7.40310130             0.356618546
SP   3   1.00
     20.8479528             -0.108506975            0.0716287243
      4.80830834            -0.146451658            0.3459121030
      1.34406986             1.128688580            0.7224699570
SP   1   1.00
      0.358151393            1.0000000              1.0000000
D    1   1.00
      3.5000000              1.0000000
D    1   1.00
      0.8750000              1.0000000
F    1   1.00
      1.8500000              1.0000000
****
Al     0
S    6   1.00
  13983.1000000              0.00194267
   2098.7500000              0.0148599
    477.7050000              0.0728494
    134.3600000              0.2468300
     42.8709000              0.4872580
     14.5189000              0.3234960
SP   6   1.00
    239.6680000             -0.00292619             0.00460285
     57.4419000             -0.0374080              0.0331990
     18.2859000             -0.1144870              0.1362820
      6.5991400              0.1156350              0.3304760
      2.4904900              0.6125950              0.4491460
      0.9445400              0.3937990              0.2657040
SP   3   1.00
      1.2779000             -0.2276060             -0.0175130
      0.3975900              0.00144583             0.2445330
      0.1600950              1.0927900              0.8049340
SP   1   1.00
      0.0556577              1.0000000              1.0000000
D    1   1.00
      0.6500000              1.0000000
D    1   1.00
      0.1625000              1.0000000
F    1   1.00
      0.2500000              1.0000000
****
Si     0
S    6   1.00
  16115.9000000              0.00195948
   2425.5800000              0.01492880
    553.8670000              0.07284780
    156.3400000              0.24613000
     50.0683000              0.48591400
     17.0178000              0.32500200
SP   6   1.00
    292.7180000             -0.00278094             0.00443826
     69.8731000             -0.03571460             0.03266790
     22.3363000             -0.11498500             0.13472100
      8.1503900              0.09356340             0.32867800
      3.1345800              0.60301700             0.44964000
      1.2254300              0.41895900             0.26137200
SP   3   1.00
      1.7273800             -0.24463000            -0.01779510
      0.5729220              0.00431572             0.25353900
      0.2221920              1.09818000             0.80066900
SP   1   1.00
      0.0778369              1.00000000             1.00000000
D    1   1.00
      0.9000000              1.0000000
D    1   1.00
      0.2250000              1.0000000
F    1   1.00
      0.3200000              1.0000000
****
P     0
S    6   1.00
  19413.3000000              0.0018516
   2909.4200000              0.0142062
    661.3640000              0.0699995
    185.7590000              0.2400790
     59.1943000              0.4847620
     20.0310000              0.3352000
SP   6   1.00
    339.4780000             -0.00278217             0.00456462
     81.0101000             -0.0360499              0.03369360
     25.8780000             -0.1166310              0.13975500
      9.4522100              0.0968328              0.33936200
      3.6656600              0.6144180              0.45092100
      1.4674600              0.4037980              0.23858600
SP   3   1.00
      2.1562300             -0.2529230             -0.01776530
      0.7489970              0.0328517              0.27405800
      0.2831450              1.0812500              0.78542100
SP   1   1.00
      0.0998317              1.0000000              1.00000000
D    1   1.00
      1.1000000              1.0000000
D    1   1.00
      0.2750000              1.0000000
F    1   1.00
      0.4500000              1.0000000
****
S     0
S    6   1.00
  21917.1000000              0.0018690
   3301.4900000              0.0142300
    754.1460000              0.0696960
    212.7110000              0.2384870
     67.9896000              0.4833070
     23.0515000              0.3380740
SP   6   1.00
    423.7350000             -0.0023767              0.0040610
    100.7100000             -0.0316930              0.0306810
     32.1599000             -0.1133170              0.1304520
     11.8079000              0.0560900              0.3272050
      4.6311000              0.5922550              0.4528510
      1.8702500              0.4550060              0.2560420
SP   3   1.00
      2.6158400             -0.2503740             -0.0145110
      0.9221670              0.0669570              0.3102630
      0.3412870              1.0545100              0.7544830
SP   1   1.00
      0.1171670              1.0000000              1.0000000
D    1   1.00
      1.3000000              1.0000000
D    1   1.00
      0.3250000              1.0000000
F    1   1.00
      0.5500000              1.0000000
****
Cl     0
S    6   1.00
  25180.1000000              0.0018330
   3780.3500000              0.0140340
    860.4740000              0.0690970
    242.1450000              0.2374520
     77.3349000              0.4830340
     26.2470000              0.3398560
SP   6   1.00
    491.7650000             -0.0022974              0.0039894
    116.9840000             -0.0307140              0.0303180
     37.4153000             -0.1125280              0.1298800
     13.7834000              0.0450160              0.3279510
      5.4521500              0.5893530              0.4535270
      2.2258800              0.4652060              0.2521540
SP   3   1.00
      3.1864900             -0.2518300             -0.0142990
      1.1442700              0.0615890              0.3235720
      0.4203770              1.0601800              0.7435070
SP   1   1.00
      0.1426570              1.0000000              1.0000000
D    1   1.00
      1.5000000              1.0000000
D    1   1.00
      0.3750000              1.0000000
F    1   1.00
      0.7000000              1.0000000
****
}

set {
reference uhf
freeze_core true
e_convergence 10
d_convergence 10
dft_spherical_points 1202
dft_radial_points 99
}

e = energy('b3lyp')

print_out('Grab this energy {0}'.format(e))
--------------------------------------------------------------------------

    Molecular point group: c1

    Geometry (in Bohr), charge = 0, multiplicity = 2:

       Center              X                  Y                   Z               Mass
    ------------   -----------------  -----------------  -----------------  -----------------
         C           -0.323340372362    -0.000699751069    -0.000139720502    12.000000000000
         C            0.061140501138    -1.401499512669    -2.425488870902    12.000000000000
         C            0.061187393838     2.803556383131     0.000314164598    12.000000000000
         C            0.060972423138    -1.400792150869     2.424890893798    12.000000000000
         H            2.083275391938    -1.644829481569    -2.847826133102     1.007825032230
         H           -0.763450086062    -0.391675686769    -4.022968847702     1.007825032230
         H           -0.763627751662    -3.289514686969    -2.350496122302     1.007825032230
         H            2.086877441038     3.286949443531     0.000382668698     1.007825032230
         H           -0.765684318962     3.679616629231     1.677335354398     1.007825032230
         H           -0.765864859262     3.678628385731    -1.675968985402     1.007825032230
         H            2.090518056738    -1.644375161669     2.847807140298     1.007825032230
         H           -0.767486351462    -3.295498129269     2.348224819698     1.007825032230
         H           -0.767124587762    -0.386028295669     4.028553040398     1.007825032230

  Charge       = 0
  Multiplicity = 2
  Basis Set: ANONYMOUS3F9E1CBB
    Blend: 6-31G_2DFP_
  Basis Set: (ANONYMOUS3F9E1CBB AUX)
    Blend: DEF2-UNIVERSAL-JKFIT

    Orbital Energies [Eh]
    ---------------------

    Alpha Occupied:

       1A    -10.180342     2A    -10.167616     3A    -10.166974
       4A    -10.166455     5A     -0.797767     6A     -0.686510
       7A     -0.685866     8A     -0.530775     9A     -0.441125
      10A     -0.434791    11A     -0.434552    12A     -0.382840
      13A     -0.382358    14A     -0.363613    15A     -0.338209
      16A     -0.337787    17A     -0.168961

    Alpha Virtual:

      18A      0.076071    19A      0.134130    20A      0.134164
      21A      0.142513    22A      0.142757    23A      0.154875
      24A      0.178448    25A      0.179113    26A      0.203545
      27A      0.214805    28A      0.275757    29A      0.276214
      30A      0.399145    31A      0.399309    32A      0.403346
      33A      0.423992    34A      0.424202    35A      0.456592
      36A      0.495315    37A      0.495463    38A      0.512162
      39A      0.513979    40A      0.578679    41A      0.578945
      42A      0.591317    43A      0.591934    44A      0.602593
      45A      0.624766    46A      0.631685    47A      0.635913
      48A      0.636675    49A      0.663221    50A      0.663607
      51A      0.683545    52A      0.684174    53A      0.734994
      54A      0.825002    55A      0.825804    56A      0.853917
      57A      0.915010    58A      0.915043    59A      0.944130
      60A      0.944611    61A      0.961043    62A      0.961550
      63A      1.003453    64A      1.127773    65A      1.128439
      66A      1.142228    67A      1.162966    68A      1.163572
      69A      1.223324    70A      1.274123    71A      1.274841
      72A      1.279370    73A      1.323993    74A      1.324715
      75A      1.355979    76A      1.365752    77A      1.366360
      78A      1.392450    79A      1.403615    80A      1.404470
      81A      1.416747    82A      1.417463    83A      1.427928
      84A      1.491489    85A      1.499085    86A      1.542741
      87A      1.542921    88A      1.574106    89A      1.574792
      90A      1.669795    91A      1.739239    92A      1.739573
      93A      1.768325    94A      1.829781    95A      1.833087
      96A      1.971701    97A      2.018025    98A      2.018616
      99A      2.019732   100A      2.051987   101A      2.053355
     102A      2.738022   103A      2.738950   104A      2.790924
     105A      2.811428   106A      2.889629   107A      2.890227
     108A      2.894986   109A      2.929371   110A      2.929618
     111A      2.959004   112A      2.963854   113A      2.964913
     114A      3.034020   115A      3.071020   116A      3.071540
     117A      3.084382   118A      3.168525   119A      3.169017
     120A      3.180613   121A      3.285250   122A      3.285386
     123A      3.326960   124A      3.327361   125A      3.375607
     126A      3.489261   127A      3.491050   128A      3.514017
     129A      3.525343   130A      3.568268   131A      3.568471
     132A      3.575193   133A      3.665280   134A      3.667386
     135A      3.679658   136A      3.693702   137A      3.694600
     138A      3.776201   139A      3.777422   140A      3.789124
     141A      3.911344   142A      3.913090   143A      4.034436
     144A      4.110580   145A      4.112036   146A      4.146061
     147A      4.150089   148A      4.173320   149A      4.200719
     150A      4.202828   151A      4.205180   152A      4.211177
     153A      4.314933   154A      4.316958   155A      4.358952
     156A      4.423374   157A      4.425364   158A      4.443643
     159A      4.516135   160A      4.517515   161A      4.577835
     162A      4.578742   163A      4.617538   164A      4.709484
     165A      4.774230   166A      4.774925   167A      4.836891
     168A      4.962833   169A      5.002092   170A      5.003895
     171A      5.227832   172A      5.243128   173A      5.250473
     174A      5.352588   175A      5.358610   176A      5.479432

    Beta Occupied:

       1A    -10.168379     2A    -10.167730     3A    -10.167217
       4A    -10.166516     5A     -0.781092     6A     -0.684312
       7A     -0.683668     8A     -0.511747     9A     -0.431170
      10A     -0.430915    11A     -0.421823    12A     -0.376941
      13A     -0.376426    14A     -0.362597    15A     -0.333332
      16A     -0.332910

    Beta Virtual:

      17A     -0.025743    18A      0.077080    19A      0.134979
      20A      0.135097    21A      0.144431    22A      0.144578
      23A      0.163334    24A      0.182130    25A      0.182773
      26A      0.215035    27A      0.218928    28A      0.282114
      29A      0.282554    30A      0.400313    31A      0.400481
      32A      0.419791    33A      0.426800    34A      0.427016
      35A      0.468500    36A      0.497574    37A      0.497726
      38A      0.513897    39A      0.556324    40A      0.584221
      41A      0.584504    42A      0.597521    43A      0.598092
      44A      0.610012    45A      0.628141    46A      0.631884
      47A      0.639183    48A      0.639934    49A      0.666769
      50A      0.667186    51A      0.686216    52A      0.686774
      53A      0.757517    54A      0.830144    55A      0.830999
      56A      0.855271    57A      0.922980    58A      0.923015
      59A      0.945967    60A      0.953539    61A      0.966378
      62A      0.966828    63A      1.008693    64A      1.131788
      65A      1.132487    66A      1.155596    67A      1.168020
      68A      1.168667    69A      1.232297    70A      1.279716
      71A      1.280443    72A      1.285123    73A      1.328938
      74A      1.329748    75A      1.365388    76A      1.371020
      77A      1.371585    78A      1.393509    79A      1.407083
      80A      1.407933    81A      1.421758    82A      1.422545
      83A      1.428203    84A      1.492537    85A      1.509528
      86A      1.547109    87A      1.547367    88A      1.581982
      89A      1.582660    90A      1.674641    91A      1.745010
      92A      1.745330    93A      1.779103    94A      1.833667
      95A      1.836912    96A      1.972565    97A      2.024903
      98A      2.025972    99A      2.039660   100A      2.058697
     101A      2.060087   102A      2.746349   103A      2.747294
     104A      2.811840   105A      2.816059   106A      2.902428
     107A      2.902836   108A      2.924654   109A      2.931904
     110A      2.932052   111A      2.960068   112A      2.968356
     113A      2.969499   114A      3.041955   115A      3.080858
     116A      3.081482   117A      3.086240   118A      3.184179
     119A      3.184800   120A      3.188358   121A      3.290021
     122A      3.290213   123A      3.330776   124A      3.331153
     125A      3.383426   126A      3.492013   127A      3.493758
     128A      3.512383   129A      3.528388   130A      3.574946
     131A      3.581694   132A      3.581828   133A      3.669989
     134A      3.672191   135A      3.692981   136A      3.725287
     137A      3.726233   138A      3.780740   139A      3.781936
     140A      3.817670   141A      3.921211   142A      3.922858
     143A      4.045318   144A      4.117555   145A      4.118668
     146A      4.153510   147A      4.157093   148A      4.187369
     149A      4.207348   150A      4.209076   151A      4.212140
     152A      4.215663   153A      4.322430   154A      4.324336
     155A      4.362317   156A      4.431584   157A      4.433511
     158A      4.446601   159A      4.523950   160A      4.525280
     161A      4.588481   162A      4.589297   163A      4.624730
     164A      4.719828   165A      4.781187   166A      4.781873
     167A      4.839809   168A      4.967630   169A      5.006152
     170A      5.007913   171A      5.233540   172A      5.244924
     173A      5.252259   174A      5.359079   175A      5.365076
     176A      5.481753

    Final Occupation by Irrep:
              A
    DOCC [    16 ]
    SOCC [     1 ]

  @DF-UKS Final Energy:  -157.81305590723778

   => Energetics <=

    Nuclear Repulsion Energy =            125.3946420689171646
    One-Electron Energy =                -458.7489104259775559
    Two-Electron Energy =                 195.8483601778671925
    DFT Exchange-Correlation Energy =     -20.3071477280445727
    Empirical Dispersion Energy =           0.0000000000000000
    VV10 Nonlocal Energy =                  0.0000000000000000
    Total Energy =                       -157.8130559072377821

  UHF NO Occupations:
  HONO-2 :   15  A 1.9996008
  HONO-1 :   16  A 1.9989804
  HONO-0 :   17  A 1.0000000
  LUNO+0 :   18  A 0.0010196
  LUNO+1 :   19  A 0.0003992
  LUNO+2 :   20  A 0.0001979
  LUNO+3 :   21  A 0.0001972

Computation Completed

Properties will be evaluated at   0.000000,   0.000000,   0.000000 [a0]

Properties computed using the SCF density matrix

  Nuclear Dipole Moment: [e a0]
     X:     0.8272      Y:    -0.0033      Z:     0.0025

  Electronic Dipole Moment: [e a0]
     X:    -0.7493      Y:     0.0034      Z:    -0.0050

  Dipole Moment: [e a0]
     X:     0.0779      Y:     0.0001      Z:    -0.0025     Total:     0.0780

  Dipole Moment: [D]
     X:     0.1980      Y:     0.0002      Z:    -0.0062     Total:     0.1981

*** tstop() called on n032 at Fri Nov  5 13:00:25 2021
Module time:
	user time   =     673.10 seconds =      11.22 minutes
	system time =      12.66 seconds =       0.21 minutes
	total time  =        172 seconds =       2.87 minutes
Total time:
	user time   =     673.10 seconds =      11.22 minutes
	system time =      12.66 seconds =       0.21 minutes
	total time  =        172 seconds =       2.87 minutes
Grab this energy -157.81305590723778
    Psi4 stopped on: Friday, 05 November 2021 01:00PM
    Psi4 wall time for execution: 0:02:52.35

*** Psi4 exiting successfully. Buy a developer a beer!
