                               Psi4 1.4a2.dev629

  ==> Input File <==

--------------------------------------------------------------------------
import os
memory 14 GB

molecule {
 C   -0.3233386151    0.0053440730    0.0002239493
 C    0.0613584103   -1.4012262725   -2.4284129989
 C    0.0608726199    2.8018184490    0.0004834669
 C    0.0610684348   -1.3988415844    2.4252505423
 H    2.0868866337   -1.6446231459   -2.8468023019
 H   -0.7662373097   -0.3883339416   -4.0243685555
 H   -0.7650147812   -3.2927525668   -2.3492326026
 H    2.0870366560    3.2875032397   -0.0001841644
 H   -0.7656532109    3.6794375406    1.6767990600
 H   -0.7655300091    3.6794153330   -1.6769823370
 H    2.0867441969   -1.6453765629    2.8477332195
 H   -0.7647248869   -3.2931662477    2.3503039259
 H   -0.7660760155   -0.3892226268    4.0251887965
units bohr
0 2
}

basis {

assign 6-31g_2dfp_

[ 6-31g_2dfp_ ]

spherical

!----------------------------------------------------------------------
! Basis Set Exchange
! Version v0.8.13
! https://www.basissetexchange.org
!----------------------------------------------------------------------
!   Basis set: 6-31G(2df,p)
! Description: 6-31G(2df,p)
!        Role: orbital
!     Version: 0  (Data from the original Basis Set Exchange)
!----------------------------------------------------------------------

****
H     0
S    3   1.00
     18.7311370              0.03349460
      2.8253937              0.23472695
      0.6401217              0.81375733
S    1   1.00
      0.1612778              1.00000000
P    1   1.00
      1.5000000              1.0000000
P    1   1.00
      0.3750000              1.0000000
****
B     0
S    6   1.00
   2068.8823000              0.0018663
    310.6495700              0.0142515
     70.6830330              0.0695516
     19.8610800              0.2325729
      6.2993048              0.4670787
      2.1270270              0.3634314
SP   3   1.00
      4.7279710             -0.1303938              0.0745976
      1.1903377             -0.1307889              0.3078467
      0.3594117              1.1309444              0.7434568
SP   1   1.00
      0.1267512              1.0000000              1.0000000
D    1   1.00
      0.8020000              1.0000000
D    1   1.00
      0.2005000              1.0000000
F    1   1.00
      0.5000000              1.0000000
****
C     0
S    6   1.00
   3047.5249000              0.0018347
    457.3695100              0.0140373
    103.9486900              0.0688426
     29.2101550              0.2321844
      9.2866630              0.4679413
      3.1639270              0.3623120
SP   3   1.00
      7.8682724             -0.1193324              0.0689991
      1.8812885             -0.1608542              0.3164240
      0.5442493              1.1434564              0.7443083
SP   1   1.00
      0.1687144              1.0000000              1.0000000
D    1   1.00
      1.2520000              1.0000000
D    1   1.00
      0.3130000              1.0000000
F    1   1.00
      0.8000000              1.0000000
****
N     0
S    6   1.00
   4173.5110000              0.0018348
    627.4579000              0.0139950
    142.9021000              0.0685870
     40.2343300              0.2322410
     12.8202100              0.4690700
      4.3904370              0.3604550
SP   3   1.00
     11.6263580             -0.1149610              0.0675800
      2.7162800             -0.1691180              0.3239070
      0.7722180              1.1458520              0.7408950
SP   1   1.00
      0.2120313              1.0000000              1.0000000
D    1   1.00
      1.8260000              1.0000000
D    1   1.00
      0.4565000              1.0000000
F    1   1.00
      1.0000000              1.0000000
****
O     0
S    6   1.00
   5484.6717000              0.0018311
    825.2349500              0.0139501
    188.0469600              0.0684451
     52.9645000              0.2327143
     16.8975700              0.4701930
      5.7996353              0.3585209
SP   3   1.00
     15.5396160             -0.1107775              0.0708743
      3.5999336             -0.1480263              0.3397528
      1.0137618              1.1307670              0.7271586
SP   1   1.00
      0.2700058              1.0000000              1.0000000
D    1   1.00
      2.5840000              1.0000000
D    1   1.00
      0.6460000              1.0000000
F    1   1.00
      1.4000000              1.0000000
****
F     0
S    6   1.00
   7001.7130900              0.0018196169
   1051.3660900              0.0139160796
    239.2856900              0.0684053245
     67.3974453              0.233185760
     21.5199573              0.471267439
      7.40310130             0.356618546
SP   3   1.00
     20.8479528             -0.108506975            0.0716287243
      4.80830834            -0.146451658            0.3459121030
      1.34406986             1.128688580            0.7224699570
SP   1   1.00
      0.358151393            1.0000000              1.0000000
D    1   1.00
      3.5000000              1.0000000
D    1   1.00
      0.8750000              1.0000000
F    1   1.00
      1.8500000              1.0000000
****
Al     0
S    6   1.00
  13983.1000000              0.00194267
   2098.7500000              0.0148599
    477.7050000              0.0728494
    134.3600000              0.2468300
     42.8709000              0.4872580
     14.5189000              0.3234960
SP   6   1.00
    239.6680000             -0.00292619             0.00460285
     57.4419000             -0.0374080              0.0331990
     18.2859000             -0.1144870              0.1362820
      6.5991400              0.1156350              0.3304760
      2.4904900              0.6125950              0.4491460
      0.9445400              0.3937990              0.2657040
SP   3   1.00
      1.2779000             -0.2276060             -0.0175130
      0.3975900              0.00144583             0.2445330
      0.1600950              1.0927900              0.8049340
SP   1   1.00
      0.0556577              1.0000000              1.0000000
D    1   1.00
      0.6500000              1.0000000
D    1   1.00
      0.1625000              1.0000000
F    1   1.00
      0.2500000              1.0000000
****
Si     0
S    6   1.00
  16115.9000000              0.00195948
   2425.5800000              0.01492880
    553.8670000              0.07284780
    156.3400000              0.24613000
     50.0683000              0.48591400
     17.0178000              0.32500200
SP   6   1.00
    292.7180000             -0.00278094             0.00443826
     69.8731000             -0.03571460             0.03266790
     22.3363000             -0.11498500             0.13472100
      8.1503900              0.09356340             0.32867800
      3.1345800              0.60301700             0.44964000
      1.2254300              0.41895900             0.26137200
SP   3   1.00
      1.7273800             -0.24463000            -0.01779510
      0.5729220              0.00431572             0.25353900
      0.2221920              1.09818000             0.80066900
SP   1   1.00
      0.0778369              1.00000000             1.00000000
D    1   1.00
      0.9000000              1.0000000
D    1   1.00
      0.2250000              1.0000000
F    1   1.00
      0.3200000              1.0000000
****
P     0
S    6   1.00
  19413.3000000              0.0018516
   2909.4200000              0.0142062
    661.3640000              0.0699995
    185.7590000              0.2400790
     59.1943000              0.4847620
     20.0310000              0.3352000
SP   6   1.00
    339.4780000             -0.00278217             0.00456462
     81.0101000             -0.0360499              0.03369360
     25.8780000             -0.1166310              0.13975500
      9.4522100              0.0968328              0.33936200
      3.6656600              0.6144180              0.45092100
      1.4674600              0.4037980              0.23858600
SP   3   1.00
      2.1562300             -0.2529230             -0.01776530
      0.7489970              0.0328517              0.27405800
      0.2831450              1.0812500              0.78542100
SP   1   1.00
      0.0998317              1.0000000              1.00000000
D    1   1.00
      1.1000000              1.0000000
D    1   1.00
      0.2750000              1.0000000
F    1   1.00
      0.4500000              1.0000000
****
S     0
S    6   1.00
  21917.1000000              0.0018690
   3301.4900000              0.0142300
    754.1460000              0.0696960
    212.7110000              0.2384870
     67.9896000              0.4833070
     23.0515000              0.3380740
SP   6   1.00
    423.7350000             -0.0023767              0.0040610
    100.7100000             -0.0316930              0.0306810
     32.1599000             -0.1133170              0.1304520
     11.8079000              0.0560900              0.3272050
      4.6311000              0.5922550              0.4528510
      1.8702500              0.4550060              0.2560420
SP   3   1.00
      2.6158400             -0.2503740             -0.0145110
      0.9221670              0.0669570              0.3102630
      0.3412870              1.0545100              0.7544830
SP   1   1.00
      0.1171670              1.0000000              1.0000000
D    1   1.00
      1.3000000              1.0000000
D    1   1.00
      0.3250000              1.0000000
F    1   1.00
      0.5500000              1.0000000
****
Cl     0
S    6   1.00
  25180.1000000              0.0018330
   3780.3500000              0.0140340
    860.4740000              0.0690970
    242.1450000              0.2374520
     77.3349000              0.4830340
     26.2470000              0.3398560
SP   6   1.00
    491.7650000             -0.0022974              0.0039894
    116.9840000             -0.0307140              0.0303180
     37.4153000             -0.1125280              0.1298800
     13.7834000              0.0450160              0.3279510
      5.4521500              0.5893530              0.4535270
      2.2258800              0.4652060              0.2521540
SP   3   1.00
      3.1864900             -0.2518300             -0.0142990
      1.1442700              0.0615890              0.3235720
      0.4203770              1.0601800              0.7435070
SP   1   1.00
      0.1426570              1.0000000              1.0000000
D    1   1.00
      1.5000000              1.0000000
D    1   1.00
      0.3750000              1.0000000
F    1   1.00
      0.7000000              1.0000000
****
}

set {
reference uhf
freeze_core true
e_convergence 10
d_convergence 10
dft_spherical_points 1202
dft_radial_points 99
}

e = energy('b3lyp')

print_out('Grab this energy {0}'.format(e))
--------------------------------------------------------------------------

    Molecular point group: c1

    Geometry (in Bohr), charge = 0, multiplicity = 2:

       Center              X                  Y                   Z               Mass
    ------------   -----------------  -----------------  -----------------  -----------------
         C           -0.323338775876     0.003978018758     0.000696807762    12.000000000000
         C            0.061358249524    -1.402592326742    -2.427940140438    12.000000000000
         C            0.060872459124     2.800452394758     0.000956325362    12.000000000000
         C            0.061068274024    -1.400207638642     2.425723400762    12.000000000000
         H            2.086886472924    -1.645989200142    -2.846329443438     1.007825032230
         H           -0.766237470476    -0.389699995842    -4.023895697038     1.007825032230
         H           -0.765014941976    -3.294118621042    -2.348759744138     1.007825032230
         H            2.087036495224     3.286137185458     0.000288694062     1.007825032230
         H           -0.765653371676     3.678071486358     1.677271918462     1.007825032230
         H           -0.765530169876     3.678049278758    -1.676509478538     1.007825032230
         H            2.086744036124    -1.646742617142     2.848206077962     1.007825032230
         H           -0.764725047676    -3.294532301942     2.350776784362     1.007825032230
         H           -0.766076176276    -0.390588681042     4.025661654962     1.007825032230

  Charge       = 0
  Multiplicity = 2
  Basis Set: ANONYMOUS98AC5058
    Blend: 6-31G_2DFP_
  Basis Set: (ANONYMOUS98AC5058 AUX)
    Blend: DEF2-UNIVERSAL-JKFIT

    Orbital Energies [Eh]
    ---------------------

    Alpha Occupied:

       1A    -10.180341     2A    -10.167073     3A    -10.167005
       4A    -10.166967     5A     -0.797769     6A     -0.686376
       7A     -0.685997     8A     -0.530776     9A     -0.441130
      10A     -0.434901    11A     -0.434436    12A     -0.382747
      13A     -0.382453    14A     -0.363610    15A     -0.338557
      16A     -0.337438    17A     -0.168960

    Alpha Virtual:

      18A      0.076072    19A      0.134132    20A      0.134178
      21A      0.142441    22A      0.142814    23A      0.154880
      24A      0.178696    25A      0.178861    26A      0.203542
      27A      0.214803    28A      0.275619    29A      0.276351
      30A      0.399104    31A      0.399352    32A      0.403346
      33A      0.424053    34A      0.424142    35A      0.456593
      36A      0.495336    37A      0.495442    38A      0.512160
      39A      0.513978    40A      0.578616    41A      0.579007
      42A      0.591582    43A      0.591705    44A      0.602576
      45A      0.624751    46A      0.631771    47A      0.636030
      48A      0.636483    49A      0.663322    50A      0.663502
      51A      0.683797    52A      0.683907    53A      0.734994
      54A      0.825285    55A      0.825530    56A      0.853916
      57A      0.914907    58A      0.915136    59A      0.944126
      60A      0.944619    61A      0.961107    62A      0.961477
      63A      1.003452    64A      1.127858    65A      1.128314
      66A      1.142271    67A      1.162796    68A      1.163741
      69A      1.223328    70A      1.273937    71A      1.275028
      72A      1.279372    73A      1.324241    74A      1.324472
      75A      1.355992    76A      1.365746    77A      1.366372
      78A      1.392435    79A      1.403857    80A      1.404228
      81A      1.416756    82A      1.417466    83A      1.427937
      84A      1.491488    85A      1.499079    86A      1.542759
      87A      1.542904    88A      1.574250    89A      1.574641
      90A      1.669819    91A      1.739183    92A      1.739667
      93A      1.768312    94A      1.830828    95A      1.831962
      96A      1.971733    97A      2.018115    98A      2.018429
      99A      2.019851   100A      2.051796   101A      2.053508
     102A      2.738218   103A      2.738754   104A      2.790925
     105A      2.811423   106A      2.889381   107A      2.890515
     108A      2.894944   109A      2.929106   110A      2.929886
     111A      2.958989   112A      2.964196   113A      2.964562
     114A      3.034001   115A      3.070756   116A      3.071824
     117A      3.084351   118A      3.168504   119A      3.168988
     120A      3.180674   121A      3.285013   122A      3.285611
     123A      3.326724   124A      3.327586   125A      3.375602
     126A      3.489514   127A      3.490769   128A      3.514025
     129A      3.525337   130A      3.568149   131A      3.568634
     132A      3.575146   133A      3.665623   134A      3.667114
     135A      3.679675   136A      3.694013   137A      3.694226
     138A      3.776061   139A      3.777511   140A      3.789177
     141A      3.911343   142A      3.913112   143A      4.034433
     144A      4.111014   145A      4.111718   146A      4.147085
     147A      4.149149   148A      4.173264   149A      4.201935
     150A      4.203032   151A      4.203825   152A      4.210891
     153A      4.315053   154A      4.316861   155A      4.358985
     156A      4.423437   157A      4.425370   158A      4.443537
     159A      4.516168   160A      4.517516   161A      4.577831
     162A      4.578413   163A      4.617839   164A      4.709464
     165A      4.773946   166A      4.775233   167A      4.836910
     168A      4.962789   169A      5.002277   170A      5.003722
     171A      5.228041   172A      5.246615   173A      5.247023
     174A      5.354945   175A      5.356062   176A      5.479346

    Beta Occupied:

       1A    -10.167830     2A    -10.167756     3A    -10.167737
       4A    -10.166519     5A     -0.781094     6A     -0.684168
       7A     -0.683810     8A     -0.511747     9A     -0.431269
      10A     -0.430820    11A     -0.421818    12A     -0.376819
      13A     -0.376553    14A     -0.362593    15A     -0.333690
      16A     -0.332551

    Beta Virtual:

      17A     -0.025743    18A      0.077081    19A      0.135040
      20A      0.135048    21A      0.144327    22A      0.144670
      23A      0.163339    24A      0.182377    25A      0.182522
      26A      0.215032    27A      0.218924    28A      0.281999
      29A      0.282667    30A      0.400278    31A      0.400518
      32A      0.419792    33A      0.426862    34A      0.426955
      35A      0.468501    36A      0.497592    37A      0.497708
      38A      0.513895    39A      0.556321    40A      0.584144
      41A      0.584584    42A      0.597760    43A      0.597884
      44A      0.610000    45A      0.628124    46A      0.631928
      47A      0.639309    48A      0.639776    49A      0.666887
      50A      0.667066    51A      0.686435    52A      0.686540
      53A      0.757516    54A      0.830455    55A      0.830697
      56A      0.855269    57A      0.922852    58A      0.923134
      59A      0.945963    60A      0.953547    61A      0.966407
      62A      0.966791    63A      1.008693    64A      1.131913
      65A      1.132340    66A      1.155623    67A      1.167865
      68A      1.168819    69A      1.232300    70A      1.279575
      71A      1.280586    72A      1.285124    73A      1.329248
      74A      1.329444    75A      1.365407    76A      1.371046
      77A      1.371560    78A      1.393496    79A      1.407338
      80A      1.407676    81A      1.421815    82A      1.422498
      83A      1.428215    84A      1.492536    85A      1.509523
      86A      1.547159    87A      1.547320    88A      1.582117
      89A      1.582517    90A      1.674666    91A      1.744939
      92A      1.745434    93A      1.779092    94A      1.834686
      95A      1.835815    96A      1.972592    97A      2.024667
      98A      2.026233    99A      2.039661   100A      2.058530
     101A      2.060217   102A      2.746534   103A      2.747110
     104A      2.811835   105A      2.816060   106A      2.902163
     107A      2.903113   108A      2.924642   109A      2.931541
     110A      2.932420   111A      2.960054   112A      2.968736
     113A      2.969109   114A      3.041936   115A      3.080742
     116A      3.081652   117A      3.086172   118A      3.184109
     119A      3.184732   120A      3.188507   121A      3.289852
     122A      3.290369   123A      3.330531   124A      3.331388
     125A      3.383421   126A      3.492223   127A      3.493514
     128A      3.512396   129A      3.528383   130A      3.574993
     131A      3.581533   132A      3.581946   133A      3.670367
     134A      3.671866   135A      3.692968   136A      3.725560
     137A      3.725942   138A      3.780582   139A      3.782067
     140A      3.817687   141A      3.921206   142A      3.922889
     143A      4.045320   144A      4.117806   145A      4.118559
     146A      4.154345   147A      4.156308   148A      4.187321
     149A      4.208268   150A      4.209446   151A      4.210912
     152A      4.215374   153A      4.322432   154A      4.324361
     155A      4.362349   156A      4.431653   157A      4.433552
     158A      4.446455   159A      4.523953   160A      4.525310
     161A      4.588407   162A      4.589016   163A      4.625054
     164A      4.719811   165A      4.780876   166A      4.782209
     167A      4.839828   168A      4.967582   169A      5.006338
     170A      5.007742   171A      5.233756   172A      5.248407
     173A      5.248798   174A      5.361397   175A      5.362572
     176A      5.481668

    Final Occupation by Irrep:
              A
    DOCC [    16 ]
    SOCC [     1 ]

  @DF-UKS Final Energy:  -157.81306300993509

   => Energetics <=

    Nuclear Repulsion Energy =            125.3946837669721930
    One-Electron Energy =                -458.7490121521964284
    Two-Electron Energy =                 195.8484112979918450
    DFT Exchange-Correlation Energy =     -20.3071459227027269
    Empirical Dispersion Energy =           0.0000000000000000
    VV10 Nonlocal Energy =                  0.0000000000000000
    Total Energy =                       -157.8130630099350924

  UHF NO Occupations:
  HONO-2 :   15  A 1.9996008
  HONO-1 :   16  A 1.9989804
  HONO-0 :   17  A 1.0000000
  LUNO+0 :   18  A 0.0010196
  LUNO+1 :   19  A 0.0003992
  LUNO+2 :   20  A 0.0001987
  LUNO+3 :   21  A 0.0001964

Computation Completed

Properties will be evaluated at   0.000000,   0.000000,   0.000000 [a0]

Properties computed using the SCF density matrix

  Nuclear Dipole Moment: [e a0]
     X:     0.8272      Y:    -0.0096      Z:     0.0033

  Electronic Dipole Moment: [e a0]
     X:    -0.7493      Y:     0.0109      Z:    -0.0034

  Dipole Moment: [e a0]
     X:     0.0779      Y:     0.0012      Z:    -0.0001     Total:     0.0779

  Dipole Moment: [D]
     X:     0.1980      Y:     0.0031      Z:    -0.0002     Total:     0.1981

*** tstop() called on n046 at Fri Nov  5 13:08:09 2021
Module time:
	user time   =     547.47 seconds =       9.12 minutes
	system time =      12.25 seconds =       0.20 minutes
	total time  =        141 seconds =       2.35 minutes
Total time:
	user time   =     547.47 seconds =       9.12 minutes
	system time =      12.25 seconds =       0.20 minutes
	total time  =        141 seconds =       2.35 minutes
Grab this energy -157.8130630099351
    Psi4 stopped on: Friday, 05 November 2021 01:08PM
    Psi4 wall time for execution: 0:02:20.71

*** Psi4 exiting successfully. Buy a developer a beer!
