                               Psi4 1.4a2.dev629

  ==> Input File <==

--------------------------------------------------------------------------
import os
memory 14 GB

molecule {
 C   -0.3230391267   -0.0000015378    0.0002256398
 C    0.0611464059   -1.3993461016   -2.4232458085
 C    0.0608816600    2.7963152174    0.0004832760
 C    0.0608555831   -1.3969635536    2.4200851692
 H    2.0867124187   -1.6404258811   -2.8412668258
 H   -0.7653203788   -0.3851116693   -4.0196810652
 H   -0.7655445445   -3.2884570136   -2.3434522032
 H    2.0865067462    3.2815097874   -0.0001849507
 H   -0.7655421477    3.6742648427    1.6760237801
 H   -0.7654200786    3.6742409218   -1.6762080298
 H    2.0865740052   -1.6411771947    2.8421984524
 H   -0.7652602760   -3.2888731719    2.3445190505
 H   -0.7651581435   -0.3859989595    4.0205035153
units bohr
0 2
}

basis {

assign 6-31g_2dfp_

[ 6-31g_2dfp_ ]

spherical

!----------------------------------------------------------------------
! Basis Set Exchange
! Version v0.8.13
! https://www.basissetexchange.org
!----------------------------------------------------------------------
!   Basis set: 6-31G(2df,p)
! Description: 6-31G(2df,p)
!        Role: orbital
!     Version: 0  (Data from the original Basis Set Exchange)
!----------------------------------------------------------------------

****
H     0
S    3   1.00
     18.7311370              0.03349460
      2.8253937              0.23472695
      0.6401217              0.81375733
S    1   1.00
      0.1612778              1.00000000
P    1   1.00
      1.5000000              1.0000000
P    1   1.00
      0.3750000              1.0000000
****
B     0
S    6   1.00
   2068.8823000              0.0018663
    310.6495700              0.0142515
     70.6830330              0.0695516
     19.8610800              0.2325729
      6.2993048              0.4670787
      2.1270270              0.3634314
SP   3   1.00
      4.7279710             -0.1303938              0.0745976
      1.1903377             -0.1307889              0.3078467
      0.3594117              1.1309444              0.7434568
SP   1   1.00
      0.1267512              1.0000000              1.0000000
D    1   1.00
      0.8020000              1.0000000
D    1   1.00
      0.2005000              1.0000000
F    1   1.00
      0.5000000              1.0000000
****
C     0
S    6   1.00
   3047.5249000              0.0018347
    457.3695100              0.0140373
    103.9486900              0.0688426
     29.2101550              0.2321844
      9.2866630              0.4679413
      3.1639270              0.3623120
SP   3   1.00
      7.8682724             -0.1193324              0.0689991
      1.8812885             -0.1608542              0.3164240
      0.5442493              1.1434564              0.7443083
SP   1   1.00
      0.1687144              1.0000000              1.0000000
D    1   1.00
      1.2520000              1.0000000
D    1   1.00
      0.3130000              1.0000000
F    1   1.00
      0.8000000              1.0000000
****
N     0
S    6   1.00
   4173.5110000              0.0018348
    627.4579000              0.0139950
    142.9021000              0.0685870
     40.2343300              0.2322410
     12.8202100              0.4690700
      4.3904370              0.3604550
SP   3   1.00
     11.6263580             -0.1149610              0.0675800
      2.7162800             -0.1691180              0.3239070
      0.7722180              1.1458520              0.7408950
SP   1   1.00
      0.2120313              1.0000000              1.0000000
D    1   1.00
      1.8260000              1.0000000
D    1   1.00
      0.4565000              1.0000000
F    1   1.00
      1.0000000              1.0000000
****
O     0
S    6   1.00
   5484.6717000              0.0018311
    825.2349500              0.0139501
    188.0469600              0.0684451
     52.9645000              0.2327143
     16.8975700              0.4701930
      5.7996353              0.3585209
SP   3   1.00
     15.5396160             -0.1107775              0.0708743
      3.5999336             -0.1480263              0.3397528
      1.0137618              1.1307670              0.7271586
SP   1   1.00
      0.2700058              1.0000000              1.0000000
D    1   1.00
      2.5840000              1.0000000
D    1   1.00
      0.6460000              1.0000000
F    1   1.00
      1.4000000              1.0000000
****
F     0
S    6   1.00
   7001.7130900              0.0018196169
   1051.3660900              0.0139160796
    239.2856900              0.0684053245
     67.3974453              0.233185760
     21.5199573              0.471267439
      7.40310130             0.356618546
SP   3   1.00
     20.8479528             -0.108506975            0.0716287243
      4.80830834            -0.146451658            0.3459121030
      1.34406986             1.128688580            0.7224699570
SP   1   1.00
      0.358151393            1.0000000              1.0000000
D    1   1.00
      3.5000000              1.0000000
D    1   1.00
      0.8750000              1.0000000
F    1   1.00
      1.8500000              1.0000000
****
Al     0
S    6   1.00
  13983.1000000              0.00194267
   2098.7500000              0.0148599
    477.7050000              0.0728494
    134.3600000              0.2468300
     42.8709000              0.4872580
     14.5189000              0.3234960
SP   6   1.00
    239.6680000             -0.00292619             0.00460285
     57.4419000             -0.0374080              0.0331990
     18.2859000             -0.1144870              0.1362820
      6.5991400              0.1156350              0.3304760
      2.4904900              0.6125950              0.4491460
      0.9445400              0.3937990              0.2657040
SP   3   1.00
      1.2779000             -0.2276060             -0.0175130
      0.3975900              0.00144583             0.2445330
      0.1600950              1.0927900              0.8049340
SP   1   1.00
      0.0556577              1.0000000              1.0000000
D    1   1.00
      0.6500000              1.0000000
D    1   1.00
      0.1625000              1.0000000
F    1   1.00
      0.2500000              1.0000000
****
Si     0
S    6   1.00
  16115.9000000              0.00195948
   2425.5800000              0.01492880
    553.8670000              0.07284780
    156.3400000              0.24613000
     50.0683000              0.48591400
     17.0178000              0.32500200
SP   6   1.00
    292.7180000             -0.00278094             0.00443826
     69.8731000             -0.03571460             0.03266790
     22.3363000             -0.11498500             0.13472100
      8.1503900              0.09356340             0.32867800
      3.1345800              0.60301700             0.44964000
      1.2254300              0.41895900             0.26137200
SP   3   1.00
      1.7273800             -0.24463000            -0.01779510
      0.5729220              0.00431572             0.25353900
      0.2221920              1.09818000             0.80066900
SP   1   1.00
      0.0778369              1.00000000             1.00000000
D    1   1.00
      0.9000000              1.0000000
D    1   1.00
      0.2250000              1.0000000
F    1   1.00
      0.3200000              1.0000000
****
P     0
S    6   1.00
  19413.3000000              0.0018516
   2909.4200000              0.0142062
    661.3640000              0.0699995
    185.7590000              0.2400790
     59.1943000              0.4847620
     20.0310000              0.3352000
SP   6   1.00
    339.4780000             -0.00278217             0.00456462
     81.0101000             -0.0360499              0.03369360
     25.8780000             -0.1166310              0.13975500
      9.4522100              0.0968328              0.33936200
      3.6656600              0.6144180              0.45092100
      1.4674600              0.4037980              0.23858600
SP   3   1.00
      2.1562300             -0.2529230             -0.01776530
      0.7489970              0.0328517              0.27405800
      0.2831450              1.0812500              0.78542100
SP   1   1.00
      0.0998317              1.0000000              1.00000000
D    1   1.00
      1.1000000              1.0000000
D    1   1.00
      0.2750000              1.0000000
F    1   1.00
      0.4500000              1.0000000
****
S     0
S    6   1.00
  21917.1000000              0.0018690
   3301.4900000              0.0142300
    754.1460000              0.0696960
    212.7110000              0.2384870
     67.9896000              0.4833070
     23.0515000              0.3380740
SP   6   1.00
    423.7350000             -0.0023767              0.0040610
    100.7100000             -0.0316930              0.0306810
     32.1599000             -0.1133170              0.1304520
     11.8079000              0.0560900              0.3272050
      4.6311000              0.5922550              0.4528510
      1.8702500              0.4550060              0.2560420
SP   3   1.00
      2.6158400             -0.2503740             -0.0145110
      0.9221670              0.0669570              0.3102630
      0.3412870              1.0545100              0.7544830
SP   1   1.00
      0.1171670              1.0000000              1.0000000
D    1   1.00
      1.3000000              1.0000000
D    1   1.00
      0.3250000              1.0000000
F    1   1.00
      0.5500000              1.0000000
****
Cl     0
S    6   1.00
  25180.1000000              0.0018330
   3780.3500000              0.0140340
    860.4740000              0.0690970
    242.1450000              0.2374520
     77.3349000              0.4830340
     26.2470000              0.3398560
SP   6   1.00
    491.7650000             -0.0022974              0.0039894
    116.9840000             -0.0307140              0.0303180
     37.4153000             -0.1125280              0.1298800
     13.7834000              0.0450160              0.3279510
      5.4521500              0.5893530              0.4535270
      2.2258800              0.4652060              0.2521540
SP   3   1.00
      3.1864900             -0.2518300             -0.0142990
      1.1442700              0.0615890              0.3235720
      0.4203770              1.0601800              0.7435070
SP   1   1.00
      0.1426570              1.0000000              1.0000000
D    1   1.00
      1.5000000              1.0000000
D    1   1.00
      0.3750000              1.0000000
F    1   1.00
      0.7000000              1.0000000
****
}

set {
reference uhf
freeze_core true
e_convergence 10
d_convergence 10
dft_spherical_points 1202
dft_radial_points 99
}

e = energy('b3lyp')

print_out('Grab this energy {0}'.format(e))
--------------------------------------------------------------------------

    Molecular point group: c1

    Geometry (in Bohr), charge = 0, multiplicity = 2:

       Center              X                  Y                   Z               Mass
    ------------   -----------------  -----------------  -----------------  -----------------
         C           -0.323016881944    -0.000001883563     0.000697859403    12.000000000000
         C            0.061168650656    -1.399346447363    -2.422773588897    12.000000000000
         C            0.060903904756     2.796314871637     0.000955495603    12.000000000000
         C            0.060877827856    -1.396963899363     2.420557388803    12.000000000000
         H            2.086734663456    -1.640426226863    -2.840794606197     1.007825032230
         H           -0.765298134044    -0.385112015063    -4.019208845597     1.007825032230
         H           -0.765522299744    -3.288457359363    -2.342979983597     1.007825032230
         H            2.086528990956     3.281509441637     0.000287268903     1.007825032230
         H           -0.765519902944     3.674264496937     1.676495999703     1.007825032230
         H           -0.765397833844     3.674240576037    -1.675735810197     1.007825032230
         H            2.086596249956    -1.641177540463     2.842670672003     1.007825032230
         H           -0.765238031244    -3.288873517663     2.344991270103     1.007825032230
         H           -0.765135898744    -0.385999305263     4.020975734903     1.007825032230

  Charge       = 0
  Multiplicity = 2
  Basis Set: ANONYMOUS43BB1B82
    Blend: 6-31G_2DFP_
  Basis Set: (ANONYMOUS43BB1B82 AUX)
    Blend: DEF2-UNIVERSAL-JKFIT

    Orbital Energies [Eh]
    ---------------------

    Alpha Occupied:

       1A    -10.179568     2A    -10.166696     3A    -10.166657
       4A    -10.166607     5A     -0.798816     6A     -0.686512
       7A     -0.686465     8A     -0.530774     9A     -0.441721
      10A     -0.435234    11A     -0.435070    12A     -0.382763
      13A     -0.382583    14A     -0.363493    15A     -0.338394
      16A     -0.337978    17A     -0.168636

    Alpha Virtual:

      18A      0.076043    19A      0.134178    20A      0.134210
      21A      0.142771    22A      0.142894    23A      0.154942
      24A      0.178872    25A      0.179036    26A      0.204639
      27A      0.215148    28A      0.276282    29A      0.276730
      30A      0.399187    31A      0.399216    32A      0.403137
      33A      0.423783    34A      0.423867    35A      0.457176
      36A      0.495595    37A      0.495640    38A      0.512497
      39A      0.514382    40A      0.579463    41A      0.579526
      42A      0.592123    43A      0.592238    44A      0.603036
      45A      0.625168    46A      0.632127    47A      0.636901
      48A      0.637236    49A      0.663826    50A      0.663945
      51A      0.684289    52A      0.684326    53A      0.734788
      54A      0.825198    55A      0.825306    56A      0.854917
      57A      0.915741    58A      0.915770    59A      0.944023
      60A      0.945466    61A      0.962222    62A      0.962288
      63A      1.004582    64A      1.128927    65A      1.129077
      66A      1.142577    67A      1.163746    68A      1.164325
      69A      1.224232    70A      1.275087    71A      1.275690
      72A      1.279888    73A      1.324628    74A      1.324756
      75A      1.356163    76A      1.367733    77A      1.368045
      78A      1.393956    79A      1.403594    80A      1.403920
      81A      1.417350    82A      1.417622    83A      1.429330
      84A      1.492713    85A      1.499659    86A      1.543491
      87A      1.543632    88A      1.575409    89A      1.575793
      90A      1.669761    91A      1.739907    92A      1.740187
      93A      1.769836    94A      1.832084    95A      1.833097
      96A      1.973117    97A      2.019610    98A      2.020514
      99A      2.020824   100A      2.056462   101A      2.057837
     102A      2.738962   103A      2.739199   104A      2.792077
     105A      2.814156   106A      2.891006   107A      2.891162
     108A      2.896460   109A      2.929619   110A      2.929746
     111A      2.959232   112A      2.963994   113A      2.964143
     114A      3.033967   115A      3.072118   116A      3.072378
     117A      3.085939   118A      3.169435   119A      3.169811
     120A      3.182504   121A      3.285791   122A      3.285831
     123A      3.327412   124A      3.327777   125A      3.374224
     126A      3.491593   127A      3.492273   128A      3.514788
     129A      3.527651   130A      3.568268   131A      3.568416
     132A      3.577280   133A      3.665649   134A      3.667017
     135A      3.681638   136A      3.695475   137A      3.695705
     138A      3.781105   139A      3.781467   140A      3.789799
     141A      3.913565   142A      3.915058   143A      4.036301
     144A      4.114012   145A      4.114378   146A      4.148628
     147A      4.149167   148A      4.174461   149A      4.203959
     150A      4.205110   151A      4.205880   152A      4.212435
     153A      4.316771   154A      4.318220   155A      4.361497
     156A      4.425560   157A      4.427410   158A      4.445962
     159A      4.519185   160A      4.520504   161A      4.581819
     162A      4.581858   163A      4.624895   164A      4.714238
     165A      4.780689   166A      4.781332   167A      4.840864
     168A      4.965895   169A      5.003880   170A      5.005299
     171A      5.229060   172A      5.248029   173A      5.248426
     174A      5.358054   175A      5.358197   176A      5.485112

    Beta Occupied:

       1A    -10.167456     2A    -10.167415     3A    -10.167371
       4A    -10.165773     5A     -0.782119     6A     -0.684300
       7A     -0.684242     8A     -0.511846     9A     -0.431587
      10A     -0.431421    11A     -0.422322    12A     -0.376831
      13A     -0.376611    14A     -0.362466    15A     -0.333523
      16A     -0.333105

    Beta Virtual:

      17A     -0.025712    18A      0.077063    19A      0.135073
      20A      0.135083    21A      0.144685    22A      0.144776
      23A      0.163446    24A      0.182582    25A      0.182722
      26A      0.215385    27A      0.219841    28A      0.282569
      29A      0.283000    30A      0.400393    31A      0.400415
      32A      0.419486    33A      0.426583    34A      0.426670
      35A      0.469439    36A      0.497863    37A      0.497921
      38A      0.514248    39A      0.556648    40A      0.585014
      41A      0.585091    42A      0.598240    43A      0.598357
      44A      0.610503    45A      0.628603    46A      0.632294
      47A      0.640264    48A      0.640590    49A      0.667342
      50A      0.667472    51A      0.687018    52A      0.687029
      53A      0.757132    54A      0.830379    55A      0.830497
      56A      0.856307    57A      0.923723    58A      0.923757
      59A      0.947306    60A      0.952860    61A      0.967556
      62A      0.967616    63A      1.009748    64A      1.132962
      65A      1.133102    66A      1.155962    67A      1.168803
      68A      1.169419    69A      1.233343    70A      1.280718
      71A      1.281327    72A      1.285576    73A      1.329630
      74A      1.329730    75A      1.365610    76A      1.372994
      77A      1.373249    78A      1.395023    79A      1.407084
      80A      1.407312    81A      1.422464    82A      1.422706
      83A      1.429636    84A      1.493760    85A      1.510168
      86A      1.547834    87A      1.547992    88A      1.583342
      89A      1.583738    90A      1.674614    91A      1.745668
      92A      1.745955    93A      1.780641    94A      1.835966
      95A      1.836960    96A      1.973981    97A      2.026037
      98A      2.027135    99A      2.042042   100A      2.063202
     101A      2.064580   102A      2.747224   103A      2.747416
     104A      2.814572   105A      2.817193   106A      2.903484
     107A      2.903598   108A      2.926222   109A      2.932294
     110A      2.932388   111A      2.960307   112A      2.968584
     113A      2.968762   114A      3.041990   115A      3.082118
     116A      3.082367   117A      3.087776   118A      3.185046
     119A      3.185449   120A      3.190164   121A      3.290778
     122A      3.290794   123A      3.331149   124A      3.331500
     125A      3.382028   126A      3.494297   127A      3.495018
     128A      3.513144   129A      3.530647   130A      3.577156
     131A      3.581590   132A      3.581781   133A      3.670273
     134A      3.671693   135A      3.694913   136A      3.726912
     137A      3.727173   138A      3.785624   139A      3.786072
     140A      3.818212   141A      3.923439   142A      3.924829
     143A      4.047123   144A      4.120443   145A      4.121012
     146A      4.156127   147A      4.156476   148A      4.188635
     149A      4.210878   150A      4.211626   151A      4.212342
     152A      4.216985   153A      4.324213   154A      4.325720
     155A      4.364839   156A      4.433902   157A      4.435685
     158A      4.448888   159A      4.527107   160A      4.528417
     161A      4.592424   162A      4.592492   163A      4.632069
     164A      4.724667   165A      4.787663   166A      4.788268
     167A      4.843780   168A      4.970713   169A      5.007973
     170A      5.009362   171A      5.234815   172A      5.249832
     173A      5.250215   174A      5.364568   175A      5.364753
     176A      5.487456

    Final Occupation by Irrep:
              A
    DOCC [    16 ]
    SOCC [     1 ]

  @DF-UKS Final Energy:  -157.81304108989846

   => Energetics <=

    Nuclear Repulsion Energy =            125.5761356292085651
    One-Electron Energy =                -459.1062380673741359
    Two-Electron Energy =                 196.0280122883881404
    DFT Exchange-Correlation Energy =     -20.3109509401210566
    Empirical Dispersion Energy =           0.0000000000000000
    VV10 Nonlocal Energy =                  0.0000000000000000
    Total Energy =                       -157.8130410898984621

  UHF NO Occupations:
  HONO-2 :   15  A 1.9995992
  HONO-1 :   16  A 1.9989874
  HONO-0 :   17  A 1.0000000
  LUNO+0 :   18  A 0.0010126
  LUNO+1 :   19  A 0.0004008
  LUNO+2 :   20  A 0.0001957
  LUNO+3 :   21  A 0.0001950

Computation Completed

Properties will be evaluated at   0.000000,   0.000000,   0.000000 [a0]

Properties computed using the SCF density matrix

  Nuclear Dipole Moment: [e a0]
     X:     0.8273      Y:    -0.0000      Z:     0.0033

  Electronic Dipole Moment: [e a0]
     X:    -0.7503      Y:     0.0000      Z:    -0.0034

  Dipole Moment: [e a0]
     X:     0.0770      Y:     0.0000      Z:    -0.0001     Total:     0.0770

  Dipole Moment: [D]
     X:     0.1958      Y:     0.0000      Z:    -0.0002     Total:     0.1958

*** tstop() called on n071 at Fri Nov  5 13:17:26 2021
Module time:
	user time   =     545.97 seconds =       9.10 minutes
	system time =      12.91 seconds =       0.22 minutes
	total time  =        141 seconds =       2.35 minutes
Total time:
	user time   =     545.97 seconds =       9.10 minutes
	system time =      12.91 seconds =       0.22 minutes
	total time  =        141 seconds =       2.35 minutes
Grab this energy -157.81304108989846
    Psi4 stopped on: Friday, 05 November 2021 01:17PM
    Psi4 wall time for execution: 0:02:20.98

*** Psi4 exiting successfully. Buy a developer a beer!
