                               Psi4 1.4a2.dev629

  ==> Input File <==

--------------------------------------------------------------------------
import os
memory 14 GB

molecule {
 C   -0.3215608970   -0.0000018661    0.0000000000
 C    0.0616985524   -1.4007486923   -2.4261576063
 C    0.0615787192    2.8015017119    0.0000000000
 C    0.0616985524   -1.4007486923    2.4261576063
 H    2.0866027381   -1.6471138151   -2.8526649608
 H   -0.7658136573   -0.3861228567   -4.0229666697
 H   -0.7659773841   -3.2908702651   -2.3459120846
 H    2.0864634051    3.2941351536   -0.0000000000
 H   -0.7660548011    3.6770259725    1.6770599779
 H   -0.7660548011    3.6770259725   -1.6770599779
 H    2.0866027381   -1.6471138151    2.8526649608
 H   -0.7659773841   -3.2908702651    2.3459120846
 H   -0.7658136573   -0.3861228567    4.0229666697
units bohr
0 2
}

basis {

assign 6-31g_2dfp_

[ 6-31g_2dfp_ ]

spherical

!----------------------------------------------------------------------
! Basis Set Exchange
! Version v0.8.13
! https://www.basissetexchange.org
!----------------------------------------------------------------------
!   Basis set: 6-31G(2df,p)
! Description: 6-31G(2df,p)
!        Role: orbital
!     Version: 0  (Data from the original Basis Set Exchange)
!----------------------------------------------------------------------

****
H     0
S    3   1.00
     18.7311370              0.03349460
      2.8253937              0.23472695
      0.6401217              0.81375733
S    1   1.00
      0.1612778              1.00000000
P    1   1.00
      1.5000000              1.0000000
P    1   1.00
      0.3750000              1.0000000
****
B     0
S    6   1.00
   2068.8823000              0.0018663
    310.6495700              0.0142515
     70.6830330              0.0695516
     19.8610800              0.2325729
      6.2993048              0.4670787
      2.1270270              0.3634314
SP   3   1.00
      4.7279710             -0.1303938              0.0745976
      1.1903377             -0.1307889              0.3078467
      0.3594117              1.1309444              0.7434568
SP   1   1.00
      0.1267512              1.0000000              1.0000000
D    1   1.00
      0.8020000              1.0000000
D    1   1.00
      0.2005000              1.0000000
F    1   1.00
      0.5000000              1.0000000
****
C     0
S    6   1.00
   3047.5249000              0.0018347
    457.3695100              0.0140373
    103.9486900              0.0688426
     29.2101550              0.2321844
      9.2866630              0.4679413
      3.1639270              0.3623120
SP   3   1.00
      7.8682724             -0.1193324              0.0689991
      1.8812885             -0.1608542              0.3164240
      0.5442493              1.1434564              0.7443083
SP   1   1.00
      0.1687144              1.0000000              1.0000000
D    1   1.00
      1.2520000              1.0000000
D    1   1.00
      0.3130000              1.0000000
F    1   1.00
      0.8000000              1.0000000
****
N     0
S    6   1.00
   4173.5110000              0.0018348
    627.4579000              0.0139950
    142.9021000              0.0685870
     40.2343300              0.2322410
     12.8202100              0.4690700
      4.3904370              0.3604550
SP   3   1.00
     11.6263580             -0.1149610              0.0675800
      2.7162800             -0.1691180              0.3239070
      0.7722180              1.1458520              0.7408950
SP   1   1.00
      0.2120313              1.0000000              1.0000000
D    1   1.00
      1.8260000              1.0000000
D    1   1.00
      0.4565000              1.0000000
F    1   1.00
      1.0000000              1.0000000
****
O     0
S    6   1.00
   5484.6717000              0.0018311
    825.2349500              0.0139501
    188.0469600              0.0684451
     52.9645000              0.2327143
     16.8975700              0.4701930
      5.7996353              0.3585209
SP   3   1.00
     15.5396160             -0.1107775              0.0708743
      3.5999336             -0.1480263              0.3397528
      1.0137618              1.1307670              0.7271586
SP   1   1.00
      0.2700058              1.0000000              1.0000000
D    1   1.00
      2.5840000              1.0000000
D    1   1.00
      0.6460000              1.0000000
F    1   1.00
      1.4000000              1.0000000
****
F     0
S    6   1.00
   7001.7130900              0.0018196169
   1051.3660900              0.0139160796
    239.2856900              0.0684053245
     67.3974453              0.233185760
     21.5199573              0.471267439
      7.40310130             0.356618546
SP   3   1.00
     20.8479528             -0.108506975            0.0716287243
      4.80830834            -0.146451658            0.3459121030
      1.34406986             1.128688580            0.7224699570
SP   1   1.00
      0.358151393            1.0000000              1.0000000
D    1   1.00
      3.5000000              1.0000000
D    1   1.00
      0.8750000              1.0000000
F    1   1.00
      1.8500000              1.0000000
****
Al     0
S    6   1.00
  13983.1000000              0.00194267
   2098.7500000              0.0148599
    477.7050000              0.0728494
    134.3600000              0.2468300
     42.8709000              0.4872580
     14.5189000              0.3234960
SP   6   1.00
    239.6680000             -0.00292619             0.00460285
     57.4419000             -0.0374080              0.0331990
     18.2859000             -0.1144870              0.1362820
      6.5991400              0.1156350              0.3304760
      2.4904900              0.6125950              0.4491460
      0.9445400              0.3937990              0.2657040
SP   3   1.00
      1.2779000             -0.2276060             -0.0175130
      0.3975900              0.00144583             0.2445330
      0.1600950              1.0927900              0.8049340
SP   1   1.00
      0.0556577              1.0000000              1.0000000
D    1   1.00
      0.6500000              1.0000000
D    1   1.00
      0.1625000              1.0000000
F    1   1.00
      0.2500000              1.0000000
****
Si     0
S    6   1.00
  16115.9000000              0.00195948
   2425.5800000              0.01492880
    553.8670000              0.07284780
    156.3400000              0.24613000
     50.0683000              0.48591400
     17.0178000              0.32500200
SP   6   1.00
    292.7180000             -0.00278094             0.00443826
     69.8731000             -0.03571460             0.03266790
     22.3363000             -0.11498500             0.13472100
      8.1503900              0.09356340             0.32867800
      3.1345800              0.60301700             0.44964000
      1.2254300              0.41895900             0.26137200
SP   3   1.00
      1.7273800             -0.24463000            -0.01779510
      0.5729220              0.00431572             0.25353900
      0.2221920              1.09818000             0.80066900
SP   1   1.00
      0.0778369              1.00000000             1.00000000
D    1   1.00
      0.9000000              1.0000000
D    1   1.00
      0.2250000              1.0000000
F    1   1.00
      0.3200000              1.0000000
****
P     0
S    6   1.00
  19413.3000000              0.0018516
   2909.4200000              0.0142062
    661.3640000              0.0699995
    185.7590000              0.2400790
     59.1943000              0.4847620
     20.0310000              0.3352000
SP   6   1.00
    339.4780000             -0.00278217             0.00456462
     81.0101000             -0.0360499              0.03369360
     25.8780000             -0.1166310              0.13975500
      9.4522100              0.0968328              0.33936200
      3.6656600              0.6144180              0.45092100
      1.4674600              0.4037980              0.23858600
SP   3   1.00
      2.1562300             -0.2529230             -0.01776530
      0.7489970              0.0328517              0.27405800
      0.2831450              1.0812500              0.78542100
SP   1   1.00
      0.0998317              1.0000000              1.00000000
D    1   1.00
      1.1000000              1.0000000
D    1   1.00
      0.2750000              1.0000000
F    1   1.00
      0.4500000              1.0000000
****
S     0
S    6   1.00
  21917.1000000              0.0018690
   3301.4900000              0.0142300
    754.1460000              0.0696960
    212.7110000              0.2384870
     67.9896000              0.4833070
     23.0515000              0.3380740
SP   6   1.00
    423.7350000             -0.0023767              0.0040610
    100.7100000             -0.0316930              0.0306810
     32.1599000             -0.1133170              0.1304520
     11.8079000              0.0560900              0.3272050
      4.6311000              0.5922550              0.4528510
      1.8702500              0.4550060              0.2560420
SP   3   1.00
      2.6158400             -0.2503740             -0.0145110
      0.9221670              0.0669570              0.3102630
      0.3412870              1.0545100              0.7544830
SP   1   1.00
      0.1171670              1.0000000              1.0000000
D    1   1.00
      1.3000000              1.0000000
D    1   1.00
      0.3250000              1.0000000
F    1   1.00
      0.5500000              1.0000000
****
Cl     0
S    6   1.00
  25180.1000000              0.0018330
   3780.3500000              0.0140340
    860.4740000              0.0690970
    242.1450000              0.2374520
     77.3349000              0.4830340
     26.2470000              0.3398560
SP   6   1.00
    491.7650000             -0.0022974              0.0039894
    116.9840000             -0.0307140              0.0303180
     37.4153000             -0.1125280              0.1298800
     13.7834000              0.0450160              0.3279510
      5.4521500              0.5893530              0.4535270
      2.2258800              0.4652060              0.2521540
SP   3   1.00
      3.1864900             -0.2518300             -0.0142990
      1.1442700              0.0615890              0.3235720
      0.4203770              1.0601800              0.7435070
SP   1   1.00
      0.1426570              1.0000000              1.0000000
D    1   1.00
      1.5000000              1.0000000
D    1   1.00
      0.3750000              1.0000000
F    1   1.00
      0.7000000              1.0000000
****
}

set {
reference uhf
freeze_core true
e_convergence 10
d_convergence 10
dft_spherical_points 1202
dft_radial_points 99
}

e = energy('b3lyp')

print_out('Grab this energy {0}'.format(e))
--------------------------------------------------------------------------

    Molecular point group: cs

    Geometry (in Bohr), charge = 0, multiplicity = 2:

       Center              X                  Y                   Z               Mass
    ------------   -----------------  -----------------  -----------------  -----------------
         C           -0.322226337906    -0.000001910776     0.000000000000    12.000000000000
         C            0.061033111494    -1.400748736976    -2.426157606300    12.000000000000
         C            0.060913278294     2.801501667224     0.000000000000    12.000000000000
         C            0.061033111494    -1.400748736976     2.426157606300    12.000000000000
         H            2.085937297194    -1.647113859776    -2.852664960800     1.007825032230
         H           -0.766479098206    -0.386122901376    -4.022966669700     1.007825032230
         H           -0.766642825006    -3.290870309776    -2.345912084600     1.007825032230
         H            2.085797964194     3.294135108924     0.000000000000     1.007825032230
         H           -0.766720242006     3.677025927824     1.677059977900     1.007825032230
         H           -0.766720242006     3.677025927824    -1.677059977900     1.007825032230
         H            2.085937297194    -1.647113859776     2.852664960800     1.007825032230
         H           -0.766642825006    -3.290870309776     2.345912084600     1.007825032230
         H           -0.766479098206    -0.386122901376     4.022966669700     1.007825032230

  Charge       = 0
  Multiplicity = 2
  Basis Set: ANONYMOUSD2FF578D
    Blend: 6-31G_2DFP_
  Basis Set: (ANONYMOUSD2FF578D AUX)
    Blend: DEF2-UNIVERSAL-JKFIT

    Orbital Energies [Eh]
    ---------------------

    Alpha Occupied:

       1Ap   -10.180329     2Ap   -10.166984     1App  -10.166984
       3Ap   -10.166938     4Ap    -0.797830     5Ap    -0.686224
       2App   -0.686224     6Ap    -0.530788     7Ap    -0.440953
       3App   -0.434883     8Ap    -0.434882     9Ap    -0.382448
       4App   -0.382446     5App   -0.363749     6App   -0.338021
      10Ap    -0.338021    11Ap    -0.169050

    Alpha Virtual:

      12Ap     0.076108    13Ap     0.134107     7App    0.134108
      14Ap     0.142696     8App    0.142696    15Ap     0.155084
      16Ap     0.178743     9App    0.178743    17Ap     0.203679
      10App    0.215024    11App    0.276024    18Ap     0.276025
      19Ap     0.399454    12App    0.399458    20Ap     0.403269
      13App    0.423945    21Ap     0.423945    22Ap     0.456829
      23Ap     0.495365    14App    0.495366    15App    0.511972
      24Ap     0.514037    25Ap     0.578960    16App    0.578968
      17App    0.591451    26Ap     0.591453    27Ap     0.602339
      28Ap     0.624826    18App    0.632028    19App    0.636336
      29Ap     0.636339    30Ap     0.663689    20App    0.663689
      31Ap     0.683767    21App    0.683768    32Ap     0.735077
      22App    0.825305    33Ap     0.825307    23App    0.854261
      24App    0.915171    34Ap     0.915177    35Ap     0.943815
      25App    0.944350    26App    0.961001    36Ap     0.961017
      37Ap     1.004178    38Ap     1.128562    27App    1.128575
      39Ap     1.141615    40Ap     1.163811    28App    1.163823
      41Ap     1.223255    42Ap     1.274464    29App    1.274467
      43Ap     1.279583    30App    1.324626    44Ap     1.324629
      45Ap     1.355578    31App    1.366383    46Ap     1.366387
      32App    1.392263    47Ap     1.403765    33App    1.403767
      34App    1.416963    48Ap     1.416970    35App    1.428523
      36App    1.492093    49Ap     1.498761    37App    1.542891
      50Ap     1.542893    51Ap     1.573831    38App    1.573833
      52Ap     1.669893    53Ap     1.739279    39App    1.739290
      54Ap     1.768171    40App    1.831673    55Ap     1.831673
      41App    1.971831    56Ap     2.018086    57Ap     2.019895
      42App    2.019898    58Ap     2.053108    43App    2.053108
      44App    2.738071    59Ap     2.738072    60Ap     2.791151
      45App    2.811942    61Ap     2.890111    46App    2.890117
      62Ap     2.895190    63Ap     2.929945    47App    2.929953
      48App    2.959057    64Ap     2.964423    49App    2.964437
      65Ap     3.034476    50App    3.070797    66Ap     3.070811
      51App    3.084000    67Ap     3.168712    52App    3.168719
      68Ap     3.180746    53App    3.284914    69Ap     3.284914
      70Ap     3.328261    54App    3.328267    71Ap     3.375325
      55App    3.489665    72Ap     3.489685    56App    3.514231
      73Ap     3.525494    57App    3.568917    74Ap     3.568938
      58App    3.576010    75Ap     3.666339    59App    3.666347
      76Ap     3.680735    60App    3.693591    77Ap     3.693608
      78Ap     3.777948    61App    3.777974    79Ap     3.787804
      80Ap     3.912332    62App    3.912338    81Ap     4.033350
      82Ap     4.111484    63App    4.111488    83Ap     4.147896
      64App    4.147904    84Ap     4.173176    85Ap     4.202283
      65App    4.203850    86Ap     4.203854    66App    4.211342
      87Ap     4.316280    67App    4.316299    68App    4.360117
      88Ap     4.423949    69App    4.423951    70App    4.444442
      71App    4.517656    89Ap     4.517657    72App    4.579253
      90Ap     4.579265    91Ap     4.618005    92Ap     4.709771
      93Ap     4.774943    73App    4.774952    74App    4.835891
      94Ap     4.963382    75App    5.002832    95Ap     5.002844
      96Ap     5.228406    76App    5.246745    97Ap     5.246745
      98Ap     5.356072    77App    5.356084    78App    5.479607

    Beta Occupied:

       1Ap   -10.167738     1App  -10.167738     2Ap   -10.167713
       3Ap   -10.166512     4Ap    -0.781159     5Ap    -0.684025
       2App   -0.684025     6Ap    -0.511755     3App   -0.431245
       7Ap    -0.431245     8Ap    -0.421657     9Ap    -0.376522
       4App   -0.376521     5App   -0.362727     6App   -0.333148
      10Ap    -0.333148

    Beta Virtual:

      11Ap    -0.025908    12Ap     0.077114    13Ap     0.135011
       7App    0.135012    14Ap     0.144576     8App    0.144577
      15Ap     0.163594    16Ap     0.182407     9App    0.182407
      10App    0.215255    17Ap     0.219022    11App    0.282360
      18Ap     0.282363    19Ap     0.400628    12App    0.400632
      20Ap     0.419737    13App    0.426750    21Ap     0.426750
      22Ap     0.468816    23Ap     0.497640    14App    0.497641
      15App    0.513712    24Ap     0.556297    25Ap     0.584532
      16App    0.584541    17App    0.597602    26Ap     0.597603
      27Ap     0.609782    28Ap     0.628205    18App    0.632188
      19App    0.639615    29Ap     0.639619    30Ap     0.667275
      20App    0.667276    31Ap     0.686383    21App    0.686384
      32Ap     0.757564    22App    0.830489    33Ap     0.830491
      23App    0.855617    24App    0.923188    34Ap     0.923195
      25App    0.946186    35Ap     0.952826    26App    0.966281
      36Ap     0.966296    37Ap     1.009447    38Ap     1.132593
      27App    1.132605    39Ap     1.154780    40Ap     1.168875
      28App    1.168888    41Ap     1.232326    42Ap     1.280079
      29App    1.280083    43Ap     1.285405    30App    1.329656
      44Ap     1.329657    45Ap     1.364936    31App    1.371618
      46Ap     1.371623    32App    1.393334    47Ap     1.407245
      33App    1.407248    34App    1.421961    48Ap     1.421968
      35App    1.428794    36App    1.493130    49Ap     1.509182
      50Ap     1.547293    37App    1.547294    38App    1.581714
      51Ap     1.581715    52Ap     1.674743    53Ap     1.745042
      39App    1.745053    54Ap     1.778966    40App    1.835525
      55Ap     1.835526    41App    1.972698    56Ap     2.026328
      42App    2.026332    57Ap     2.039477    58Ap     2.059807
      43App    2.059807    44App    2.746418    59Ap     2.746419
      45App    2.812359    60Ap     2.816291    61Ap     2.902732
      46App    2.902738    62Ap     2.924889    63Ap     2.932439
      47App    2.932448    48App    2.960121    64Ap     2.969005
      49App    2.969019    65Ap     3.042403    50App    3.080696
      66Ap     3.080708    51App    3.085817    67Ap     3.184459
      52App    3.184463    68Ap     3.188438    69Ap     3.289689
      53App    3.289689    70Ap     3.332041    54App    3.332047
      71Ap     3.383117    55App    3.492462    72Ap     3.492482
      56App    3.512603    73Ap     3.528503    57App    3.575857
      58App    3.582196    74Ap     3.582217    75Ap     3.670994
      59App    3.671005    76Ap     3.693973    60App    3.725385
      77Ap     3.725401    78Ap     3.782538    61App    3.782564
      79Ap     3.816375    80Ap     3.922100    62App    3.922108
      81Ap     4.044290    82Ap     4.118393    63App    4.118394
      83Ap     4.155023    64App    4.155032    84Ap     4.187204
      65App    4.209753    85Ap     4.209757    86Ap     4.210295
      66App    4.215845    87Ap     4.323737    67App    4.323757
      68App    4.363501    88Ap     4.432170    69App    4.432172
      70App    4.447299    71App    4.525434    89Ap     4.525435
      72App    4.589877    90Ap     4.589889    91Ap     4.625121
      92Ap     4.720222    93Ap     4.781883    73App    4.781891
      74App    4.838810    94Ap     4.968174    75App    5.006887
      95Ap     5.006899    96Ap     5.234108    76App    5.248533
      97Ap     5.248533    98Ap     5.362554    77App    5.362567
      78App    5.481933

    Final Occupation by Irrep:
             Ap   App
    DOCC [    10,    6 ]
    SOCC [     1,    0 ]

  @DF-UKS Final Energy:  -157.81307916126812

   => Energetics <=

    Nuclear Repulsion Energy =            125.4061971667520936
    One-Electron Energy =                -458.7715187792746292
    Two-Electron Energy =                 195.8597278503036705
    DFT Exchange-Correlation Energy =     -20.3074853990492841
    Empirical Dispersion Energy =           0.0000000000000000
    VV10 Nonlocal Energy =                  0.0000000000000000
    Total Energy =                       -157.8130791612681207

  UHF NO Occupations:
  HONO-2 :    9 Ap 1.9995995
  HONO-1 :   10 Ap 1.9989824
  HONO-0 :   11 Ap 1.0000000
  LUNO+0 :   12 Ap 0.0010176
  LUNO+1 :   13 Ap 0.0004005
  LUNO+2 :    7App 0.0001972
  LUNO+3 :   14 Ap 0.0001972

Computation Completed

Properties will be evaluated at   0.000000,   0.000000,   0.000000 [a0]

Properties computed using the SCF density matrix

  Nuclear Dipole Moment: [e a0]
     X:     0.8225      Y:    -0.0000      Z:     0.0000

  Electronic Dipole Moment: [e a0]
     X:    -0.7450      Y:     0.0000      Z:     0.0000

  Dipole Moment: [e a0]
     X:     0.0775      Y:    -0.0000      Z:     0.0000     Total:     0.0775

  Dipole Moment: [D]
     X:     0.1970      Y:    -0.0000      Z:     0.0000     Total:     0.1970

*** tstop() called on n079 at Fri Nov  5 15:38:30 2021
Module time:
	user time   =     464.85 seconds =       7.75 minutes
	system time =       4.27 seconds =       0.07 minutes
	total time  =        118 seconds =       1.97 minutes
Total time:
	user time   =     464.85 seconds =       7.75 minutes
	system time =       4.27 seconds =       0.07 minutes
	total time  =        118 seconds =       1.97 minutes
Grab this energy -157.81307916126812
    Psi4 stopped on: Friday, 05 November 2021 03:38PM
    Psi4 wall time for execution: 0:01:58.03

*** Psi4 exiting successfully. Buy a developer a beer!
