                               Psi4 1.4a2.dev629

  ==> Input File <==

--------------------------------------------------------------------------
import os
memory 14 GB

molecule {
 C   -0.3233404352    0.0002544440   -0.0019961846
 C    0.0620320995   -1.4005835619   -2.4256974931
 C    0.0589702140    2.8017668296   -0.0011531725
 C    0.0622987249   -1.4023186368    2.4263918822
 H    2.0870288934   -1.6401626272   -2.8451284775
 H   -0.7658529022   -0.3905865130   -4.0275298710
 H   -0.7648818697   -3.2902588099   -2.3470059197
 H    2.0869983312    3.2880986365   -0.0040982628
 H   -0.7636285909    3.6746423894    1.6774952765
 H   -0.7663777731    3.6858881297   -1.6759039983
 H    2.0866385649   -1.6476808854    2.8499641657
 H   -0.7671336630   -3.2933379957    2.3512746424
 H   -0.7653594705   -0.3857457128    4.0233874127
units bohr
0 2
}

basis {

assign 6-31g_2dfp_

[ 6-31g_2dfp_ ]

spherical

!----------------------------------------------------------------------
! Basis Set Exchange
! Version v0.8.13
! https://www.basissetexchange.org
!----------------------------------------------------------------------
!   Basis set: 6-31G(2df,p)
! Description: 6-31G(2df,p)
!        Role: orbital
!     Version: 0  (Data from the original Basis Set Exchange)
!----------------------------------------------------------------------

****
H     0
S    3   1.00
     18.7311370              0.03349460
      2.8253937              0.23472695
      0.6401217              0.81375733
S    1   1.00
      0.1612778              1.00000000
P    1   1.00
      1.5000000              1.0000000
P    1   1.00
      0.3750000              1.0000000
****
B     0
S    6   1.00
   2068.8823000              0.0018663
    310.6495700              0.0142515
     70.6830330              0.0695516
     19.8610800              0.2325729
      6.2993048              0.4670787
      2.1270270              0.3634314
SP   3   1.00
      4.7279710             -0.1303938              0.0745976
      1.1903377             -0.1307889              0.3078467
      0.3594117              1.1309444              0.7434568
SP   1   1.00
      0.1267512              1.0000000              1.0000000
D    1   1.00
      0.8020000              1.0000000
D    1   1.00
      0.2005000              1.0000000
F    1   1.00
      0.5000000              1.0000000
****
C     0
S    6   1.00
   3047.5249000              0.0018347
    457.3695100              0.0140373
    103.9486900              0.0688426
     29.2101550              0.2321844
      9.2866630              0.4679413
      3.1639270              0.3623120
SP   3   1.00
      7.8682724             -0.1193324              0.0689991
      1.8812885             -0.1608542              0.3164240
      0.5442493              1.1434564              0.7443083
SP   1   1.00
      0.1687144              1.0000000              1.0000000
D    1   1.00
      1.2520000              1.0000000
D    1   1.00
      0.3130000              1.0000000
F    1   1.00
      0.8000000              1.0000000
****
N     0
S    6   1.00
   4173.5110000              0.0018348
    627.4579000              0.0139950
    142.9021000              0.0685870
     40.2343300              0.2322410
     12.8202100              0.4690700
      4.3904370              0.3604550
SP   3   1.00
     11.6263580             -0.1149610              0.0675800
      2.7162800             -0.1691180              0.3239070
      0.7722180              1.1458520              0.7408950
SP   1   1.00
      0.2120313              1.0000000              1.0000000
D    1   1.00
      1.8260000              1.0000000
D    1   1.00
      0.4565000              1.0000000
F    1   1.00
      1.0000000              1.0000000
****
O     0
S    6   1.00
   5484.6717000              0.0018311
    825.2349500              0.0139501
    188.0469600              0.0684451
     52.9645000              0.2327143
     16.8975700              0.4701930
      5.7996353              0.3585209
SP   3   1.00
     15.5396160             -0.1107775              0.0708743
      3.5999336             -0.1480263              0.3397528
      1.0137618              1.1307670              0.7271586
SP   1   1.00
      0.2700058              1.0000000              1.0000000
D    1   1.00
      2.5840000              1.0000000
D    1   1.00
      0.6460000              1.0000000
F    1   1.00
      1.4000000              1.0000000
****
F     0
S    6   1.00
   7001.7130900              0.0018196169
   1051.3660900              0.0139160796
    239.2856900              0.0684053245
     67.3974453              0.233185760
     21.5199573              0.471267439
      7.40310130             0.356618546
SP   3   1.00
     20.8479528             -0.108506975            0.0716287243
      4.80830834            -0.146451658            0.3459121030
      1.34406986             1.128688580            0.7224699570
SP   1   1.00
      0.358151393            1.0000000              1.0000000
D    1   1.00
      3.5000000              1.0000000
D    1   1.00
      0.8750000              1.0000000
F    1   1.00
      1.8500000              1.0000000
****
Al     0
S    6   1.00
  13983.1000000              0.00194267
   2098.7500000              0.0148599
    477.7050000              0.0728494
    134.3600000              0.2468300
     42.8709000              0.4872580
     14.5189000              0.3234960
SP   6   1.00
    239.6680000             -0.00292619             0.00460285
     57.4419000             -0.0374080              0.0331990
     18.2859000             -0.1144870              0.1362820
      6.5991400              0.1156350              0.3304760
      2.4904900              0.6125950              0.4491460
      0.9445400              0.3937990              0.2657040
SP   3   1.00
      1.2779000             -0.2276060             -0.0175130
      0.3975900              0.00144583             0.2445330
      0.1600950              1.0927900              0.8049340
SP   1   1.00
      0.0556577              1.0000000              1.0000000
D    1   1.00
      0.6500000              1.0000000
D    1   1.00
      0.1625000              1.0000000
F    1   1.00
      0.2500000              1.0000000
****
Si     0
S    6   1.00
  16115.9000000              0.00195948
   2425.5800000              0.01492880
    553.8670000              0.07284780
    156.3400000              0.24613000
     50.0683000              0.48591400
     17.0178000              0.32500200
SP   6   1.00
    292.7180000             -0.00278094             0.00443826
     69.8731000             -0.03571460             0.03266790
     22.3363000             -0.11498500             0.13472100
      8.1503900              0.09356340             0.32867800
      3.1345800              0.60301700             0.44964000
      1.2254300              0.41895900             0.26137200
SP   3   1.00
      1.7273800             -0.24463000            -0.01779510
      0.5729220              0.00431572             0.25353900
      0.2221920              1.09818000             0.80066900
SP   1   1.00
      0.0778369              1.00000000             1.00000000
D    1   1.00
      0.9000000              1.0000000
D    1   1.00
      0.2250000              1.0000000
F    1   1.00
      0.3200000              1.0000000
****
P     0
S    6   1.00
  19413.3000000              0.0018516
   2909.4200000              0.0142062
    661.3640000              0.0699995
    185.7590000              0.2400790
     59.1943000              0.4847620
     20.0310000              0.3352000
SP   6   1.00
    339.4780000             -0.00278217             0.00456462
     81.0101000             -0.0360499              0.03369360
     25.8780000             -0.1166310              0.13975500
      9.4522100              0.0968328              0.33936200
      3.6656600              0.6144180              0.45092100
      1.4674600              0.4037980              0.23858600
SP   3   1.00
      2.1562300             -0.2529230             -0.01776530
      0.7489970              0.0328517              0.27405800
      0.2831450              1.0812500              0.78542100
SP   1   1.00
      0.0998317              1.0000000              1.00000000
D    1   1.00
      1.1000000              1.0000000
D    1   1.00
      0.2750000              1.0000000
F    1   1.00
      0.4500000              1.0000000
****
S     0
S    6   1.00
  21917.1000000              0.0018690
   3301.4900000              0.0142300
    754.1460000              0.0696960
    212.7110000              0.2384870
     67.9896000              0.4833070
     23.0515000              0.3380740
SP   6   1.00
    423.7350000             -0.0023767              0.0040610
    100.7100000             -0.0316930              0.0306810
     32.1599000             -0.1133170              0.1304520
     11.8079000              0.0560900              0.3272050
      4.6311000              0.5922550              0.4528510
      1.8702500              0.4550060              0.2560420
SP   3   1.00
      2.6158400             -0.2503740             -0.0145110
      0.9221670              0.0669570              0.3102630
      0.3412870              1.0545100              0.7544830
SP   1   1.00
      0.1171670              1.0000000              1.0000000
D    1   1.00
      1.3000000              1.0000000
D    1   1.00
      0.3250000              1.0000000
F    1   1.00
      0.5500000              1.0000000
****
Cl     0
S    6   1.00
  25180.1000000              0.0018330
   3780.3500000              0.0140340
    860.4740000              0.0690970
    242.1450000              0.2374520
     77.3349000              0.4830340
     26.2470000              0.3398560
SP   6   1.00
    491.7650000             -0.0022974              0.0039894
    116.9840000             -0.0307140              0.0303180
     37.4153000             -0.1125280              0.1298800
     13.7834000              0.0450160              0.3279510
      5.4521500              0.5893530              0.4535270
      2.2258800              0.4652060              0.2521540
SP   3   1.00
      3.1864900             -0.2518300             -0.0142990
      1.1442700              0.0615890              0.3235720
      0.4203770              1.0601800              0.7435070
SP   1   1.00
      0.1426570              1.0000000              1.0000000
D    1   1.00
      1.5000000              1.0000000
D    1   1.00
      0.3750000              1.0000000
F    1   1.00
      0.7000000              1.0000000
****
}

set {
reference uhf
freeze_core true
e_convergence 10
d_convergence 10
dft_spherical_points 1202
dft_radial_points 99
}

e = energy('b3lyp')

print_out('Grab this energy {0}'.format(e))
--------------------------------------------------------------------------

    Molecular point group: c1

    Geometry (in Bohr), charge = 0, multiplicity = 2:

       Center              X                  Y                   Z               Mass
    ------------   -----------------  -----------------  -----------------  -----------------
         C           -0.323340548462     0.000424545879    -0.001523340081    12.000000000000
         C            0.062031986238    -1.400413460021    -2.425224648581    12.000000000000
         C            0.058970100738     2.801936931479    -0.000680327981    12.000000000000
         C            0.062298611638    -1.402148534921     2.426864726719    12.000000000000
         H            2.087028780138    -1.639992525321    -2.844655632981     1.007825032230
         H           -0.765853015462    -0.390416411121    -4.027057026481     1.007825032230
         H           -0.764881982962    -3.290088708021    -2.346533075181     1.007825032230
         H            2.086998217938     3.288268738379    -0.003625418281     1.007825032230
         H           -0.763628704162     3.674812491279     1.677968121019     1.007825032230
         H           -0.766377886362     3.686058231579    -1.675431153781     1.007825032230
         H            2.086638451638    -1.647510783521     2.850437010219     1.007825032230
         H           -0.767133776262    -3.293167893821     2.351747486919     1.007825032230
         H           -0.765359583762    -0.385575610921     4.023860257219     1.007825032230

  Charge       = 0
  Multiplicity = 2
  Basis Set: ANONYMOUS0119A2D7
    Blend: 6-31G_2DFP_
  Basis Set: (ANONYMOUS0119A2D7 AUX)
    Blend: DEF2-UNIVERSAL-JKFIT

    Orbital Energies [Eh]
    ---------------------

    Alpha Occupied:

       1A    -10.180342     2A    -10.167159     3A    -10.167047
       4A    -10.166839     5A     -0.797767     6A     -0.686313
       7A     -0.686060     8A     -0.530776     9A     -0.441131
      10A     -0.434792    11A     -0.434545    12A     -0.382752
      13A     -0.382446    14A     -0.363612    15A     -0.338105
      16A     -0.337890    17A     -0.168961

    Alpha Virtual:

      18A      0.076073    19A      0.134110    20A      0.134202
      21A      0.142539    22A      0.142713    23A      0.154880
      24A      0.178657    25A      0.178899    26A      0.203548
      27A      0.214804    28A      0.275711    29A      0.276259
      30A      0.399063    31A      0.399383    32A      0.403356
      33A      0.424026    34A      0.424170    35A      0.456593
      36A      0.495324    37A      0.495455    38A      0.512159
      39A      0.513979    40A      0.578514    41A      0.579119
      42A      0.591318    43A      0.591944    44A      0.602577
      45A      0.624757    46A      0.631775    47A      0.636139
      48A      0.636366    49A      0.663241    50A      0.663584
      51A      0.683700    52A      0.684005    53A      0.734994
      54A      0.825190    55A      0.825622    56A      0.853916
      57A      0.914881    58A      0.915158    59A      0.944123
      60A      0.944612    61A      0.960601    62A      0.961989
      63A      1.003462    64A      1.127861    65A      1.128343
      66A      1.142220    67A      1.163130    68A      1.163426
      69A      1.223324    70A      1.274274    71A      1.274703
      72A      1.279353    73A      1.324104    74A      1.324610
      75A      1.355988    76A      1.365707    77A      1.366399
      78A      1.392450    79A      1.403725    80A      1.404387
      81A      1.416626    82A      1.417603    83A      1.427911
      84A      1.491494    85A      1.499079    86A      1.542550
      87A      1.543103    88A      1.574295    89A      1.574598
      90A      1.669833    91A      1.738857    92A      1.739980
      93A      1.768320    94A      1.830870    95A      1.831926
      96A      1.971730    97A      2.017982    98A      2.018570
      99A      2.019842   100A      2.051753   101A      2.053527
     102A      2.738199   103A      2.738766   104A      2.790930
     105A      2.811416   106A      2.889535   107A      2.890343
     108A      2.894987   109A      2.929465   110A      2.929533
     111A      2.958995   112A      2.964187   113A      2.964561
     114A      3.034009   115A      3.071098   116A      3.071462
     117A      3.084357   118A      3.168548   119A      3.169021
     120A      3.180585   121A      3.285258   122A      3.285372
     123A      3.326791   124A      3.327525   125A      3.375621
     126A      3.489801   127A      3.490498   128A      3.514026
     129A      3.525305   130A      3.568020   131A      3.568684
     132A      3.575240   133A      3.666034   134A      3.666704
     135A      3.679627   136A      3.693702   137A      3.694593
     138A      3.775561   139A      3.778050   140A      3.789153
     141A      3.911952   142A      3.912509   143A      4.034450
     144A      4.110095   145A      4.112627   146A      4.147222
     147A      4.148995   148A      4.173282   149A      4.202414
     150A      4.203058   151A      4.203310   152A      4.210860
     153A      4.315036   154A      4.316833   155A      4.359039
     156A      4.424181   157A      4.424731   158A      4.443438
     159A      4.515703   160A      4.517967   161A      4.577858
     162A      4.578667   163A      4.617527   164A      4.709449
     165A      4.773369   166A      4.775814   167A      4.836959
     168A      4.962858   169A      5.002367   170A      5.003526
     171A      5.228045   172A      5.246339   173A      5.247285
     174A      5.354738   175A      5.356270   176A      5.479356

    Beta Occupied:

       1A    -10.167916     2A    -10.167808     3A    -10.167600
       4A    -10.166519     5A     -0.781092     6A     -0.684108
       7A     -0.683870     8A     -0.511747     9A     -0.431167
      10A     -0.430922    11A     -0.421818    12A     -0.376845
      13A     -0.376523    14A     -0.362596    15A     -0.333227
      16A     -0.333014

    Beta Virtual:

      17A     -0.025742    18A      0.077082    19A      0.135011
      20A      0.135079    21A      0.144412    22A      0.144582
      23A      0.163339    24A      0.182331    25A      0.182568
      26A      0.215033    27A      0.218930    28A      0.282069
      29A      0.282597    30A      0.400237    31A      0.400558
      32A      0.419789    33A      0.426837    34A      0.426984
      35A      0.468500    36A      0.497589    37A      0.497712
      38A      0.513895    39A      0.556324    40A      0.584064
      41A      0.584669    42A      0.597508    43A      0.598113
      44A      0.609999    45A      0.628134    46A      0.631931
      47A      0.639416    48A      0.639659    49A      0.666819
      50A      0.667134    51A      0.686328    52A      0.686648
      53A      0.757517    54A      0.830337    55A      0.830812
      56A      0.855269    57A      0.922887    58A      0.923094
      59A      0.945961    60A      0.953536    61A      0.965964
      62A      0.967243    63A      1.008703    64A      1.131807
      65A      1.132455    66A      1.155599    67A      1.168290
      68A      1.168410    69A      1.232296    70A      1.279870
      71A      1.280302    72A      1.285106    73A      1.329082
      74A      1.329610    75A      1.365404    76A      1.370962
      77A      1.371629    78A      1.393511    79A      1.407159
      80A      1.407882    81A      1.421690    82A      1.422640
      83A      1.428180    84A      1.492542    85A      1.509522
      86A      1.546957    87A      1.547511    88A      1.582219
      89A      1.582418    90A      1.674679    91A      1.744619
      92A      1.745742    93A      1.779098    94A      1.834728
      95A      1.835779    96A      1.972589    97A      2.024806
      98A      2.026072    99A      2.039698   100A      2.058451
     101A      2.060256   102A      2.746552   103A      2.747085
     104A      2.811829   105A      2.816064   106A      2.902301
     107A      2.902985   108A      2.924664   109A      2.931955
     110A      2.932003   111A      2.960057   112A      2.968748
     113A      2.969089   114A      3.041944   115A      3.081011
     116A      3.081356   117A      3.086183   118A      3.184280
     119A      3.184787   120A      3.188270   121A      3.290038
     122A      3.290189   123A      3.330605   124A      3.331320
     125A      3.383439   126A      3.492540   127A      3.493216
     128A      3.512394   129A      3.528357   130A      3.574909
     131A      3.581421   132A      3.582142   133A      3.670891
     134A      3.671376   135A      3.692922   136A      3.725584
     137A      3.725943   138A      3.780133   139A      3.782530
     140A      3.817699   141A      3.921780   142A      3.922314
     143A      4.045337   144A      4.117026   145A      4.119330
     146A      4.154405   147A      4.156234   148A      4.187336
     149A      4.208760   150A      4.209192   151A      4.210673
     152A      4.215335   153A      4.322437   154A      4.324303
     155A      4.362409   156A      4.432444   157A      4.432895
     158A      4.446325   159A      4.523500   160A      4.525748
     161A      4.588467   162A      4.589259   163A      4.624723
     164A      4.719793   165A      4.780367   166A      4.782722
     167A      4.839878   168A      4.967653   169A      5.006415
     170A      5.007557   171A      5.233761   172A      5.248115
     173A      5.249078   174A      5.361199   175A      5.362770
     176A      5.481678

    Final Occupation by Irrep:
              A
    DOCC [    16 ]
    SOCC [     1 ]

  @DF-UKS Final Energy:  -157.81306706644224

   => Energetics <=

    Nuclear Repulsion Energy =            125.3946271633756879
    One-Electron Energy =                -458.7489125360858679
    Two-Electron Energy =                 195.8483614117337197
    DFT Exchange-Correlation Energy =     -20.3071431054657694
    Empirical Dispersion Energy =           0.0000000000000000
    VV10 Nonlocal Energy =                  0.0000000000000000
    Total Energy =                       -157.8130670664422439

  UHF NO Occupations:
  HONO-2 :   15  A 1.9996009
  HONO-1 :   16  A 1.9989804
  HONO-0 :   17  A 1.0000000
  LUNO+0 :   18  A 0.0010196
  LUNO+1 :   19  A 0.0003991
  LUNO+2 :   20  A 0.0001979
  LUNO+3 :   21  A 0.0001972

Computation Completed

Properties will be evaluated at   0.000000,   0.000000,   0.000000 [a0]

Properties computed using the SCF density matrix

  Nuclear Dipole Moment: [e a0]
     X:     0.8272      Y:     0.0012      Z:     0.0033

  Electronic Dipole Moment: [e a0]
     X:    -0.7493      Y:    -0.0011      Z:    -0.0034

  Dipole Moment: [e a0]
     X:     0.0779      Y:     0.0001      Z:    -0.0000     Total:     0.0779

  Dipole Moment: [D]
     X:     0.1980      Y:     0.0003      Z:    -0.0001     Total:     0.1980

*** tstop() called on n091 at Fri Nov  5 12:37:44 2021
Module time:
	user time   =     581.17 seconds =       9.69 minutes
	system time =       5.54 seconds =       0.09 minutes
	total time  =        147 seconds =       2.45 minutes
Total time:
	user time   =     581.17 seconds =       9.69 minutes
	system time =       5.54 seconds =       0.09 minutes
	total time  =        147 seconds =       2.45 minutes
Grab this energy -157.81306706644224
    Psi4 stopped on: Friday, 05 November 2021 12:37PM
    Psi4 wall time for execution: 0:02:27.47

*** Psi4 exiting successfully. Buy a developer a beer!
