                               Psi4 1.4a2.dev629

  ==> Input File <==

--------------------------------------------------------------------------
import os
memory 14 GB

molecule {
 C   -0.3218817463    0.0000050959    0.0050043656
 C    0.0608057393   -1.3947896323   -2.4220767485
 C    0.0601638137    2.8018393830   -0.0062305210
 C    0.0597664003   -1.4070425510    2.4308382200
 H    2.0876582111   -1.6352837073   -2.8433103709
 H   -0.7657043263   -0.3788834233   -4.0185412861
 H   -0.7631256267   -3.2862579034   -2.3487491778
 H    2.0868447416    3.2880354458   -0.0111341978
 H   -0.7627426790    3.6878300967    1.6670825545
 H   -0.7682356571    3.6726339136   -1.6859913899
 H    2.0863178350   -1.6528581174    2.8514815002
 H   -0.7676947909   -3.2978083321    2.3491677927
 H   -0.7647797914   -0.3974445819    4.0324592590
units bohr
0 2
}

basis {

assign 6-31g_2dfp_

[ 6-31g_2dfp_ ]

spherical

!----------------------------------------------------------------------
! Basis Set Exchange
! Version v0.8.13
! https://www.basissetexchange.org
!----------------------------------------------------------------------
!   Basis set: 6-31G(2df,p)
! Description: 6-31G(2df,p)
!        Role: orbital
!     Version: 0  (Data from the original Basis Set Exchange)
!----------------------------------------------------------------------

****
H     0
S    3   1.00
     18.7311370              0.03349460
      2.8253937              0.23472695
      0.6401217              0.81375733
S    1   1.00
      0.1612778              1.00000000
P    1   1.00
      1.5000000              1.0000000
P    1   1.00
      0.3750000              1.0000000
****
B     0
S    6   1.00
   2068.8823000              0.0018663
    310.6495700              0.0142515
     70.6830330              0.0695516
     19.8610800              0.2325729
      6.2993048              0.4670787
      2.1270270              0.3634314
SP   3   1.00
      4.7279710             -0.1303938              0.0745976
      1.1903377             -0.1307889              0.3078467
      0.3594117              1.1309444              0.7434568
SP   1   1.00
      0.1267512              1.0000000              1.0000000
D    1   1.00
      0.8020000              1.0000000
D    1   1.00
      0.2005000              1.0000000
F    1   1.00
      0.5000000              1.0000000
****
C     0
S    6   1.00
   3047.5249000              0.0018347
    457.3695100              0.0140373
    103.9486900              0.0688426
     29.2101550              0.2321844
      9.2866630              0.4679413
      3.1639270              0.3623120
SP   3   1.00
      7.8682724             -0.1193324              0.0689991
      1.8812885             -0.1608542              0.3164240
      0.5442493              1.1434564              0.7443083
SP   1   1.00
      0.1687144              1.0000000              1.0000000
D    1   1.00
      1.2520000              1.0000000
D    1   1.00
      0.3130000              1.0000000
F    1   1.00
      0.8000000              1.0000000
****
N     0
S    6   1.00
   4173.5110000              0.0018348
    627.4579000              0.0139950
    142.9021000              0.0685870
     40.2343300              0.2322410
     12.8202100              0.4690700
      4.3904370              0.3604550
SP   3   1.00
     11.6263580             -0.1149610              0.0675800
      2.7162800             -0.1691180              0.3239070
      0.7722180              1.1458520              0.7408950
SP   1   1.00
      0.2120313              1.0000000              1.0000000
D    1   1.00
      1.8260000              1.0000000
D    1   1.00
      0.4565000              1.0000000
F    1   1.00
      1.0000000              1.0000000
****
O     0
S    6   1.00
   5484.6717000              0.0018311
    825.2349500              0.0139501
    188.0469600              0.0684451
     52.9645000              0.2327143
     16.8975700              0.4701930
      5.7996353              0.3585209
SP   3   1.00
     15.5396160             -0.1107775              0.0708743
      3.5999336             -0.1480263              0.3397528
      1.0137618              1.1307670              0.7271586
SP   1   1.00
      0.2700058              1.0000000              1.0000000
D    1   1.00
      2.5840000              1.0000000
D    1   1.00
      0.6460000              1.0000000
F    1   1.00
      1.4000000              1.0000000
****
F     0
S    6   1.00
   7001.7130900              0.0018196169
   1051.3660900              0.0139160796
    239.2856900              0.0684053245
     67.3974453              0.233185760
     21.5199573              0.471267439
      7.40310130             0.356618546
SP   3   1.00
     20.8479528             -0.108506975            0.0716287243
      4.80830834            -0.146451658            0.3459121030
      1.34406986             1.128688580            0.7224699570
SP   1   1.00
      0.358151393            1.0000000              1.0000000
D    1   1.00
      3.5000000              1.0000000
D    1   1.00
      0.8750000              1.0000000
F    1   1.00
      1.8500000              1.0000000
****
Al     0
S    6   1.00
  13983.1000000              0.00194267
   2098.7500000              0.0148599
    477.7050000              0.0728494
    134.3600000              0.2468300
     42.8709000              0.4872580
     14.5189000              0.3234960
SP   6   1.00
    239.6680000             -0.00292619             0.00460285
     57.4419000             -0.0374080              0.0331990
     18.2859000             -0.1144870              0.1362820
      6.5991400              0.1156350              0.3304760
      2.4904900              0.6125950              0.4491460
      0.9445400              0.3937990              0.2657040
SP   3   1.00
      1.2779000             -0.2276060             -0.0175130
      0.3975900              0.00144583             0.2445330
      0.1600950              1.0927900              0.8049340
SP   1   1.00
      0.0556577              1.0000000              1.0000000
D    1   1.00
      0.6500000              1.0000000
D    1   1.00
      0.1625000              1.0000000
F    1   1.00
      0.2500000              1.0000000
****
Si     0
S    6   1.00
  16115.9000000              0.00195948
   2425.5800000              0.01492880
    553.8670000              0.07284780
    156.3400000              0.24613000
     50.0683000              0.48591400
     17.0178000              0.32500200
SP   6   1.00
    292.7180000             -0.00278094             0.00443826
     69.8731000             -0.03571460             0.03266790
     22.3363000             -0.11498500             0.13472100
      8.1503900              0.09356340             0.32867800
      3.1345800              0.60301700             0.44964000
      1.2254300              0.41895900             0.26137200
SP   3   1.00
      1.7273800             -0.24463000            -0.01779510
      0.5729220              0.00431572             0.25353900
      0.2221920              1.09818000             0.80066900
SP   1   1.00
      0.0778369              1.00000000             1.00000000
D    1   1.00
      0.9000000              1.0000000
D    1   1.00
      0.2250000              1.0000000
F    1   1.00
      0.3200000              1.0000000
****
P     0
S    6   1.00
  19413.3000000              0.0018516
   2909.4200000              0.0142062
    661.3640000              0.0699995
    185.7590000              0.2400790
     59.1943000              0.4847620
     20.0310000              0.3352000
SP   6   1.00
    339.4780000             -0.00278217             0.00456462
     81.0101000             -0.0360499              0.03369360
     25.8780000             -0.1166310              0.13975500
      9.4522100              0.0968328              0.33936200
      3.6656600              0.6144180              0.45092100
      1.4674600              0.4037980              0.23858600
SP   3   1.00
      2.1562300             -0.2529230             -0.01776530
      0.7489970              0.0328517              0.27405800
      0.2831450              1.0812500              0.78542100
SP   1   1.00
      0.0998317              1.0000000              1.00000000
D    1   1.00
      1.1000000              1.0000000
D    1   1.00
      0.2750000              1.0000000
F    1   1.00
      0.4500000              1.0000000
****
S     0
S    6   1.00
  21917.1000000              0.0018690
   3301.4900000              0.0142300
    754.1460000              0.0696960
    212.7110000              0.2384870
     67.9896000              0.4833070
     23.0515000              0.3380740
SP   6   1.00
    423.7350000             -0.0023767              0.0040610
    100.7100000             -0.0316930              0.0306810
     32.1599000             -0.1133170              0.1304520
     11.8079000              0.0560900              0.3272050
      4.6311000              0.5922550              0.4528510
      1.8702500              0.4550060              0.2560420
SP   3   1.00
      2.6158400             -0.2503740             -0.0145110
      0.9221670              0.0669570              0.3102630
      0.3412870              1.0545100              0.7544830
SP   1   1.00
      0.1171670              1.0000000              1.0000000
D    1   1.00
      1.3000000              1.0000000
D    1   1.00
      0.3250000              1.0000000
F    1   1.00
      0.5500000              1.0000000
****
Cl     0
S    6   1.00
  25180.1000000              0.0018330
   3780.3500000              0.0140340
    860.4740000              0.0690970
    242.1450000              0.2374520
     77.3349000              0.4830340
     26.2470000              0.3398560
SP   6   1.00
    491.7650000             -0.0022974              0.0039894
    116.9840000             -0.0307140              0.0303180
     37.4153000             -0.1125280              0.1298800
     13.7834000              0.0450160              0.3279510
      5.4521500              0.5893530              0.4535270
      2.2258800              0.4652060              0.2521540
SP   3   1.00
      3.1864900             -0.2518300             -0.0142990
      1.1442700              0.0615890              0.3235720
      0.4203770              1.0601800              0.7435070
SP   1   1.00
      0.1426570              1.0000000              1.0000000
D    1   1.00
      1.5000000              1.0000000
D    1   1.00
      0.3750000              1.0000000
F    1   1.00
      0.7000000              1.0000000
****
}

set {
reference uhf
freeze_core true
e_convergence 10
d_convergence 10
dft_spherical_points 1202
dft_radial_points 99
}

e = energy('b3lyp')

print_out('Grab this energy {0}'.format(e))
--------------------------------------------------------------------------

    Molecular point group: c1

    Geometry (in Bohr), charge = 0, multiplicity = 2:

       Center              X                  Y                   Z               Mass
    ------------   -----------------  -----------------  -----------------  -----------------
         C           -0.321668759684     0.000003157042     0.003553009445    12.000000000000
         C            0.061018725916    -1.394791571158    -2.423528104655    12.000000000000
         C            0.060376800316     2.801837444142    -0.007681877155    12.000000000000
         C            0.059979386916    -1.407044489858     2.429386863845    12.000000000000
         H            2.087871197716    -1.635285646158    -2.844761727055     1.007825032230
         H           -0.765491339684    -0.378885362158    -4.019992642255     1.007825032230
         H           -0.762912640084    -3.286259842258    -2.350200533955     1.007825032230
         H            2.087057728216     3.288033506942    -0.012585553955     1.007825032230
         H           -0.762529692384     3.687828157842     1.665631198345     1.007825032230
         H           -0.768022670484     3.672631974742    -1.687442746055     1.007825032230
         H            2.086530821616    -1.652860056258     2.850030144045     1.007825032230
         H           -0.767481804284    -3.297810270958     2.347716436545     1.007825032230
         H           -0.764566804784    -0.397446520758     4.031007902845     1.007825032230

  Charge       = 0
  Multiplicity = 2
  Basis Set: ANONYMOUS386DDFC5
    Blend: 6-31G_2DFP_
  Basis Set: (ANONYMOUS386DDFC5 AUX)
    Blend: DEF2-UNIVERSAL-JKFIT

    Orbital Energies [Eh]
    ---------------------

    Alpha Occupied:

       1A    -10.180276     2A    -10.167295     3A    -10.167024
       4A    -10.166752     5A     -0.797785     6A     -0.686424
       7A     -0.685982     8A     -0.530771     9A     -0.441069
      10A     -0.435000    11A     -0.434469    12A     -0.382636
      13A     -0.382346    14A     -0.363737    15A     -0.338363
      16A     -0.337816    17A     -0.168778

    Alpha Virtual:

      18A      0.076069    19A      0.133920    20A      0.134399
      21A      0.142513    22A      0.142790    23A      0.154800
      24A      0.178487    25A      0.178934    26A      0.203518
      27A      0.214855    28A      0.275988    29A      0.276329
      30A      0.399075    31A      0.399359    32A      0.403493
      33A      0.423994    34A      0.424266    35A      0.456501
      36A      0.495010    37A      0.495810    38A      0.512127
      39A      0.514085    40A      0.578424    41A      0.578928
      42A      0.591592    43A      0.591629    44A      0.602355
      45A      0.624849    46A      0.631829    47A      0.636187
      48A      0.636627    49A      0.663037    50A      0.663472
      51A      0.683721    52A      0.684208    53A      0.735189
      54A      0.824634    55A      0.826278    56A      0.853913
      57A      0.914848    58A      0.915335    59A      0.944005
      60A      0.944469    61A      0.961118    62A      0.961640
      63A      1.003470    64A      1.126860    65A      1.129191
      66A      1.142198    67A      1.162350    68A      1.163320
      69A      1.223495    70A      1.274037    71A      1.275083
      72A      1.279114    73A      1.324522    74A      1.324687
      75A      1.355754    76A      1.365678    77A      1.367126
      78A      1.392428    79A      1.403232    80A      1.404851
      81A      1.416390    82A      1.417372    83A      1.427878
      84A      1.491618    85A      1.498671    86A      1.542429
      87A      1.543145    88A      1.572909    89A      1.576658
      90A      1.670088    91A      1.738582    92A      1.740697
      93A      1.768292    94A      1.831277    95A      1.832301
      96A      1.971986    97A      2.017315    98A      2.019282
      99A      2.020173   100A      2.049738   101A      2.054856
     102A      2.738414   103A      2.738945   104A      2.790722
     105A      2.811471   106A      2.890096   107A      2.890300
     108A      2.894634   109A      2.929297   110A      2.929649
     111A      2.959056   112A      2.963600   113A      2.965401
     114A      3.033657   115A      3.071116   116A      3.073107
     117A      3.084458   118A      3.167912   119A      3.169455
     120A      3.180595   121A      3.283794   122A      3.285222
     123A      3.325865   124A      3.327761   125A      3.375495
     126A      3.489866   127A      3.490841   128A      3.514216
     129A      3.524843   130A      3.567469   131A      3.569721
     132A      3.574783   133A      3.666856   134A      3.667070
     135A      3.679878   136A      3.693588   137A      3.694488
     138A      3.776228   139A      3.777860   140A      3.790550
     141A      3.910829   142A      3.913674   143A      4.034786
     144A      4.110249   145A      4.112994   146A      4.146478
     147A      4.149792   148A      4.173268   149A      4.201101
     150A      4.203030   151A      4.204440   152A      4.210902
     153A      4.315726   154A      4.315773   155A      4.358517
     156A      4.424409   157A      4.424695   158A      4.443799
     159A      4.515703   160A      4.517412   161A      4.577094
     162A      4.579215   163A      4.618030   164A      4.709115
     165A      4.773449   166A      4.776054   167A      4.838135
     168A      4.962762   169A      5.001822   170A      5.003800
     171A      5.228134   172A      5.246770   173A      5.247087
     174A      5.355072   175A      5.356484   176A      5.479696

    Beta Occupied:

       1A    -10.168054     2A    -10.167785     3A    -10.167517
       4A    -10.166457     5A     -0.781106     6A     -0.684232
       7A     -0.683783     8A     -0.511750     9A     -0.431389
      10A     -0.430842    11A     -0.421735    12A     -0.376721
      13A     -0.376411    14A     -0.362722    15A     -0.333486
      16A     -0.332931

    Beta Virtual:

      17A     -0.025642    18A      0.077082    19A      0.134809
      20A      0.135310    21A      0.144387    22A      0.144651
      23A      0.163270    24A      0.182147    25A      0.182614
      26A      0.215085    27A      0.218923    28A      0.282312
      29A      0.282677    30A      0.400298    31A      0.400532
      32A      0.419905    33A      0.426788    34A      0.427090
      35A      0.468398    36A      0.497264    37A      0.498072
      38A      0.513867    39A      0.556428    40A      0.584018
      41A      0.584464    42A      0.597752    43A      0.597815
      44A      0.609801    45A      0.628207    46A      0.631986
      47A      0.639450    48A      0.639924    49A      0.666571
      50A      0.667058    51A      0.686310    52A      0.686901
      53A      0.757691    54A      0.829788    55A      0.831452
      56A      0.855270    57A      0.922795    58A      0.923308
      59A      0.945867    60A      0.953389    61A      0.966405
      62A      0.967027    63A      1.008688    64A      1.130890
      65A      1.133205    66A      1.155601    67A      1.167395
      68A      1.168432    69A      1.232468    70A      1.279615
      71A      1.280669    72A      1.284859    73A      1.329487
      74A      1.329685    75A      1.365196    76A      1.370817
      77A      1.372473    78A      1.393496    79A      1.406737
      80A      1.408288    81A      1.421455    82A      1.422441
      83A      1.428146    84A      1.492672    85A      1.509107
      86A      1.546735    87A      1.547653    88A      1.580926
      89A      1.584385    90A      1.674919    91A      1.744351
      92A      1.746457    93A      1.779091    94A      1.835123
      95A      1.836183    96A      1.972849    97A      2.023664
      98A      2.026640    99A      2.040637   100A      2.056527
     101A      2.061464   102A      2.746705   103A      2.747326
     104A      2.811875   105A      2.815876   106A      2.902777
     107A      2.902908   108A      2.924354   109A      2.931885
     110A      2.932052   111A      2.960124   112A      2.968162
     113A      2.969901   114A      3.041633   115A      3.080818
     116A      3.082987   117A      3.086446   118A      3.183871
     119A      3.185181   120A      3.188228   121A      3.288700
     122A      3.289997   123A      3.329653   124A      3.331567
     125A      3.383302   126A      3.492582   127A      3.493541
     128A      3.512587   129A      3.527888   130A      3.574170
     131A      3.580993   132A      3.583255   133A      3.671593
     134A      3.671861   135A      3.693179   136A      3.725250
     137A      3.726069   138A      3.780733   139A      3.782399
     140A      3.819031   141A      3.920684   142A      3.923527
     143A      4.045645   144A      4.117085   145A      4.119817
     146A      4.153729   147A      4.156933   148A      4.187369
     149A      4.207012   150A      4.210340   151A      4.211025
     152A      4.215424   153A      4.323130   154A      4.323209
     155A      4.361879   156A      4.432656   157A      4.432917
     158A      4.446727   159A      4.523606   160A      4.525116
     161A      4.587582   162A      4.589863   163A      4.625231
     164A      4.719435   165A      4.780350   166A      4.783028
     167A      4.841043   168A      4.967558   169A      5.005876
     170A      5.007853   171A      5.233846   172A      5.248551
     173A      5.248877   174A      5.361527   175A      5.362974
     176A      5.482011

    Final Occupation by Irrep:
              A
    DOCC [    16 ]
    SOCC [     1 ]

  @DF-UKS Final Energy:  -157.81307246331795

   => Energetics <=

    Nuclear Repulsion Energy =            125.3972696199541588
    One-Electron Energy =                -458.7540258413531546
    Two-Electron Energy =                 195.8508975604680415
    DFT Exchange-Correlation Energy =     -20.3072138023869897
    Empirical Dispersion Energy =           0.0000000000000000
    VV10 Nonlocal Energy =                  0.0000000000000000
    Total Energy =                       -157.8130724633179511

  UHF NO Occupations:
  HONO-2 :   15  A 1.9995994
  HONO-1 :   16  A 1.9989789
  HONO-0 :   17  A 1.0000000
  LUNO+0 :   18  A 0.0010211
  LUNO+1 :   19  A 0.0004006
  LUNO+2 :   20  A 0.0001978
  LUNO+3 :   21  A 0.0001971

Computation Completed

Properties will be evaluated at   0.000000,   0.000000,   0.000000 [a0]

Properties computed using the SCF density matrix

  Nuclear Dipole Moment: [e a0]
     X:     0.8287      Y:    -0.0000      Z:    -0.0102

  Electronic Dipole Moment: [e a0]
     X:    -0.7516      Y:     0.0000      Z:     0.0110

  Dipole Moment: [e a0]
     X:     0.0771      Y:    -0.0000      Z:     0.0008     Total:     0.0771

  Dipole Moment: [D]
     X:     0.1961      Y:    -0.0000      Z:     0.0019     Total:     0.1961

*** tstop() called on n082 at Fri Nov  5 11:42:22 2021
Module time:
	user time   =     494.19 seconds =       8.24 minutes
	system time =       4.43 seconds =       0.07 minutes
	total time  =        125 seconds =       2.08 minutes
Total time:
	user time   =     494.19 seconds =       8.24 minutes
	system time =       4.43 seconds =       0.07 minutes
	total time  =        125 seconds =       2.08 minutes
Grab this energy -157.81307246331795
    Psi4 stopped on: Friday, 05 November 2021 11:42AM
    Psi4 wall time for execution: 0:02:05.40

*** Psi4 exiting successfully. Buy a developer a beer!
