                               Psi4 1.4a2.dev629

  ==> Input File <==

--------------------------------------------------------------------------
import os
memory 14 GB

molecule {
 C   -0.3265086144   -0.0019991467    0.0000000000
 C    0.0597366132   -1.4016215446   -2.4256693281
 C    0.0598506111    2.8027858529    0.0000000000
 C    0.0597366132   -1.4016215446    2.4256693281
 H    2.0873791998   -1.6461554728   -2.8439084928
 H   -0.7629414030   -0.3851132660   -4.0214946391
 H   -0.7654745858   -3.2937829511   -2.3534247753
 H    2.0869038192    3.2929567608    0.0000000000
 H   -0.7651266705    3.6797893443    1.6776670659
 H   -0.7651266705    3.6797893443   -1.6776670659
 H    2.0873791998   -1.6461554728    2.8439084928
 H   -0.7654745858   -3.2937829511    2.3534247753
 H   -0.7629414030   -0.3851132660    4.0214946391
units bohr
0 2
}

basis {

assign 6-31g_2dfp_

[ 6-31g_2dfp_ ]

spherical

!----------------------------------------------------------------------
! Basis Set Exchange
! Version v0.8.13
! https://www.basissetexchange.org
!----------------------------------------------------------------------
!   Basis set: 6-31G(2df,p)
! Description: 6-31G(2df,p)
!        Role: orbital
!     Version: 0  (Data from the original Basis Set Exchange)
!----------------------------------------------------------------------

****
H     0
S    3   1.00
     18.7311370              0.03349460
      2.8253937              0.23472695
      0.6401217              0.81375733
S    1   1.00
      0.1612778              1.00000000
P    1   1.00
      1.5000000              1.0000000
P    1   1.00
      0.3750000              1.0000000
****
B     0
S    6   1.00
   2068.8823000              0.0018663
    310.6495700              0.0142515
     70.6830330              0.0695516
     19.8610800              0.2325729
      6.2993048              0.4670787
      2.1270270              0.3634314
SP   3   1.00
      4.7279710             -0.1303938              0.0745976
      1.1903377             -0.1307889              0.3078467
      0.3594117              1.1309444              0.7434568
SP   1   1.00
      0.1267512              1.0000000              1.0000000
D    1   1.00
      0.8020000              1.0000000
D    1   1.00
      0.2005000              1.0000000
F    1   1.00
      0.5000000              1.0000000
****
C     0
S    6   1.00
   3047.5249000              0.0018347
    457.3695100              0.0140373
    103.9486900              0.0688426
     29.2101550              0.2321844
      9.2866630              0.4679413
      3.1639270              0.3623120
SP   3   1.00
      7.8682724             -0.1193324              0.0689991
      1.8812885             -0.1608542              0.3164240
      0.5442493              1.1434564              0.7443083
SP   1   1.00
      0.1687144              1.0000000              1.0000000
D    1   1.00
      1.2520000              1.0000000
D    1   1.00
      0.3130000              1.0000000
F    1   1.00
      0.8000000              1.0000000
****
N     0
S    6   1.00
   4173.5110000              0.0018348
    627.4579000              0.0139950
    142.9021000              0.0685870
     40.2343300              0.2322410
     12.8202100              0.4690700
      4.3904370              0.3604550
SP   3   1.00
     11.6263580             -0.1149610              0.0675800
      2.7162800             -0.1691180              0.3239070
      0.7722180              1.1458520              0.7408950
SP   1   1.00
      0.2120313              1.0000000              1.0000000
D    1   1.00
      1.8260000              1.0000000
D    1   1.00
      0.4565000              1.0000000
F    1   1.00
      1.0000000              1.0000000
****
O     0
S    6   1.00
   5484.6717000              0.0018311
    825.2349500              0.0139501
    188.0469600              0.0684451
     52.9645000              0.2327143
     16.8975700              0.4701930
      5.7996353              0.3585209
SP   3   1.00
     15.5396160             -0.1107775              0.0708743
      3.5999336             -0.1480263              0.3397528
      1.0137618              1.1307670              0.7271586
SP   1   1.00
      0.2700058              1.0000000              1.0000000
D    1   1.00
      2.5840000              1.0000000
D    1   1.00
      0.6460000              1.0000000
F    1   1.00
      1.4000000              1.0000000
****
F     0
S    6   1.00
   7001.7130900              0.0018196169
   1051.3660900              0.0139160796
    239.2856900              0.0684053245
     67.3974453              0.233185760
     21.5199573              0.471267439
      7.40310130             0.356618546
SP   3   1.00
     20.8479528             -0.108506975            0.0716287243
      4.80830834            -0.146451658            0.3459121030
      1.34406986             1.128688580            0.7224699570
SP   1   1.00
      0.358151393            1.0000000              1.0000000
D    1   1.00
      3.5000000              1.0000000
D    1   1.00
      0.8750000              1.0000000
F    1   1.00
      1.8500000              1.0000000
****
Al     0
S    6   1.00
  13983.1000000              0.00194267
   2098.7500000              0.0148599
    477.7050000              0.0728494
    134.3600000              0.2468300
     42.8709000              0.4872580
     14.5189000              0.3234960
SP   6   1.00
    239.6680000             -0.00292619             0.00460285
     57.4419000             -0.0374080              0.0331990
     18.2859000             -0.1144870              0.1362820
      6.5991400              0.1156350              0.3304760
      2.4904900              0.6125950              0.4491460
      0.9445400              0.3937990              0.2657040
SP   3   1.00
      1.2779000             -0.2276060             -0.0175130
      0.3975900              0.00144583             0.2445330
      0.1600950              1.0927900              0.8049340
SP   1   1.00
      0.0556577              1.0000000              1.0000000
D    1   1.00
      0.6500000              1.0000000
D    1   1.00
      0.1625000              1.0000000
F    1   1.00
      0.2500000              1.0000000
****
Si     0
S    6   1.00
  16115.9000000              0.00195948
   2425.5800000              0.01492880
    553.8670000              0.07284780
    156.3400000              0.24613000
     50.0683000              0.48591400
     17.0178000              0.32500200
SP   6   1.00
    292.7180000             -0.00278094             0.00443826
     69.8731000             -0.03571460             0.03266790
     22.3363000             -0.11498500             0.13472100
      8.1503900              0.09356340             0.32867800
      3.1345800              0.60301700             0.44964000
      1.2254300              0.41895900             0.26137200
SP   3   1.00
      1.7273800             -0.24463000            -0.01779510
      0.5729220              0.00431572             0.25353900
      0.2221920              1.09818000             0.80066900
SP   1   1.00
      0.0778369              1.00000000             1.00000000
D    1   1.00
      0.9000000              1.0000000
D    1   1.00
      0.2250000              1.0000000
F    1   1.00
      0.3200000              1.0000000
****
P     0
S    6   1.00
  19413.3000000              0.0018516
   2909.4200000              0.0142062
    661.3640000              0.0699995
    185.7590000              0.2400790
     59.1943000              0.4847620
     20.0310000              0.3352000
SP   6   1.00
    339.4780000             -0.00278217             0.00456462
     81.0101000             -0.0360499              0.03369360
     25.8780000             -0.1166310              0.13975500
      9.4522100              0.0968328              0.33936200
      3.6656600              0.6144180              0.45092100
      1.4674600              0.4037980              0.23858600
SP   3   1.00
      2.1562300             -0.2529230             -0.01776530
      0.7489970              0.0328517              0.27405800
      0.2831450              1.0812500              0.78542100
SP   1   1.00
      0.0998317              1.0000000              1.00000000
D    1   1.00
      1.1000000              1.0000000
D    1   1.00
      0.2750000              1.0000000
F    1   1.00
      0.4500000              1.0000000
****
S     0
S    6   1.00
  21917.1000000              0.0018690
   3301.4900000              0.0142300
    754.1460000              0.0696960
    212.7110000              0.2384870
     67.9896000              0.4833070
     23.0515000              0.3380740
SP   6   1.00
    423.7350000             -0.0023767              0.0040610
    100.7100000             -0.0316930              0.0306810
     32.1599000             -0.1133170              0.1304520
     11.8079000              0.0560900              0.3272050
      4.6311000              0.5922550              0.4528510
      1.8702500              0.4550060              0.2560420
SP   3   1.00
      2.6158400             -0.2503740             -0.0145110
      0.9221670              0.0669570              0.3102630
      0.3412870              1.0545100              0.7544830
SP   1   1.00
      0.1171670              1.0000000              1.0000000
D    1   1.00
      1.3000000              1.0000000
D    1   1.00
      0.3250000              1.0000000
F    1   1.00
      0.5500000              1.0000000
****
Cl     0
S    6   1.00
  25180.1000000              0.0018330
   3780.3500000              0.0140340
    860.4740000              0.0690970
    242.1450000              0.2374520
     77.3349000              0.4830340
     26.2470000              0.3398560
SP   6   1.00
    491.7650000             -0.0022974              0.0039894
    116.9840000             -0.0307140              0.0303180
     37.4153000             -0.1125280              0.1298800
     13.7834000              0.0450160              0.3279510
      5.4521500              0.5893530              0.4535270
      2.2258800              0.4652060              0.2521540
SP   3   1.00
      3.1864900             -0.2518300             -0.0142990
      1.1442700              0.0615890              0.3235720
      0.4203770              1.0601800              0.7435070
SP   1   1.00
      0.1426570              1.0000000              1.0000000
D    1   1.00
      1.5000000              1.0000000
D    1   1.00
      0.3750000              1.0000000
F    1   1.00
      0.7000000              1.0000000
****
}

set {
reference uhf
freeze_core true
e_convergence 10
d_convergence 10
dft_spherical_points 1202
dft_radial_points 99
}

e = energy('b3lyp')

print_out('Grab this energy {0}'.format(e))
--------------------------------------------------------------------------

    Molecular point group: cs

    Geometry (in Bohr), charge = 0, multiplicity = 2:

       Center              X                  Y                   Z               Mass
    ------------   -----------------  -----------------  -----------------  -----------------
         C           -0.325132475989    -0.001525600284     0.000000000000    12.000000000000
         C            0.061112751611    -1.401147998184    -2.425669328100    12.000000000000
         C            0.061226749511     2.803259399316     0.000000000000    12.000000000000
         C            0.061112751611    -1.401147998184     2.425669328100    12.000000000000
         H            2.088755338211    -1.645681926384    -2.843908492800     1.007825032230
         H           -0.761565264589    -0.384639719584    -4.021494639100     1.007825032230
         H           -0.764098447389    -3.293309404684    -2.353424775300     1.007825032230
         H            2.088279957611     3.293430307216     0.000000000000     1.007825032230
         H           -0.763750532089     3.680262890716     1.677667065900     1.007825032230
         H           -0.763750532089     3.680262890716    -1.677667065900     1.007825032230
         H            2.088755338211    -1.645681926384     2.843908492800     1.007825032230
         H           -0.764098447389    -3.293309404684     2.353424775300     1.007825032230
         H           -0.761565264589    -0.384639719584     4.021494639100     1.007825032230

  Charge       = 0
  Multiplicity = 2
  Basis Set: ANONYMOUSE36A8E1E
    Blend: 6-31G_2DFP_
  Basis Set: (ANONYMOUSE36A8E1E AUX)
    Blend: DEF2-UNIVERSAL-JKFIT

    Orbital Energies [Eh]
    ---------------------

    Alpha Occupied:

       1Ap   -10.180455     2Ap   -10.167223     1App  -10.166963
       3Ap   -10.166931     4Ap    -0.797713     2App   -0.686296
       5Ap    -0.686053     6Ap    -0.530797     7Ap    -0.440894
       3App   -0.434887     8Ap    -0.434742     4App   -0.382386
       9Ap    -0.382317     5App   -0.363893     6App   -0.338112
      10Ap    -0.337981    11Ap    -0.169076

    Alpha Virtual:

      12Ap     0.076090    13Ap     0.134127     7App    0.134194
       8App    0.142650    14Ap     0.142769    15Ap     0.154814
       9App    0.178633    16Ap     0.178716    17Ap     0.203502
      10App    0.214936    18Ap     0.275579    11App    0.276115
      19Ap     0.399165    12App    0.399250    20Ap     0.403311
      13App    0.424035    21Ap     0.424149    22Ap     0.456589
      14App    0.495382    23Ap     0.495500    15App    0.512055
      24Ap     0.513983    25Ap     0.578614    16App    0.579199
      26Ap     0.591032    17App    0.591622    27Ap     0.602266
      28Ap     0.624901    18App    0.631918    29Ap     0.636348
      19App    0.636416    20App    0.663208    30Ap     0.663271
      31Ap     0.683846    21App    0.683907    32Ap     0.734865
      22App    0.825015    33Ap     0.825448    23App    0.853963
      34Ap     0.914713    24App    0.914996    25App    0.944021
      35Ap     0.944593    26App    0.960691    36Ap     0.962083
      37Ap     1.004343    27App    1.128094    38Ap     1.128553
      39Ap     1.141849    28App    1.163063    40Ap     1.163216
      41Ap     1.222904    42Ap     1.274045    29App    1.274361
      43Ap     1.279197    30App    1.324459    44Ap     1.324479
      45Ap     1.354967    46Ap     1.366244    31App    1.366554
      32App    1.392530    47Ap     1.403111    33App    1.403744
      48Ap     1.416107    34App    1.416911    35App    1.427730
      36App    1.491960    49Ap     1.498575    37App    1.542940
      50Ap     1.543481    38App    1.574535    51Ap     1.574552
      52Ap     1.670365    53Ap     1.738832    39App    1.739587
      54Ap     1.768101    55Ap     1.831237    40App    1.832214
      41App    1.972286    56Ap     2.017753    42App    2.018690
      57Ap     2.019069    58Ap     2.051456    43App    2.053079
      44App    2.737877    59Ap     2.738427    60Ap     2.790711
      45App    2.811690    61Ap     2.889467    46App    2.890058
      62Ap     2.895021    63Ap     2.929622    47App    2.929677
      48App    2.959161    49App    2.964201    64Ap     2.964483
      65Ap     3.033969    50App    3.070523    66Ap     3.070806
      51App    3.084413    67Ap     3.168560    52App    3.168976
      68Ap     3.180775    69Ap     3.285620    53App    3.285710
      70Ap     3.327759    54App    3.328425    71Ap     3.375320
      72Ap     3.489832    55App    3.490103    56App    3.513564
      73Ap     3.525467    74Ap     3.567683    57App    3.568173
      58App    3.574796    59App    3.666218    75Ap     3.666501
      76Ap     3.680649    77Ap     3.693452    60App    3.694273
      61App    3.774689    78Ap     3.777170    79Ap     3.787834
      80Ap     3.912065    62App    3.912604    81Ap     4.033279
      82Ap     4.110485    63App    4.112994    83Ap     4.147428
      64App    4.149241    84Ap     4.173142    85Ap     4.202236
      86Ap     4.202748    65App    4.202783    66App    4.210756
      87Ap     4.314968    67App    4.316496    68App    4.359124
      69App    4.423572    88Ap     4.424071    70App    4.444339
      89Ap     4.516550    71App    4.517393    90Ap     4.578021
      72App    4.578693    91Ap     4.616655    92Ap     4.709040
      73App    4.773238    93Ap     4.775455    74App    4.836717
      94Ap     4.962920    95Ap     5.001907    75App    5.002583
      96Ap     5.227972    76App    5.246343    97Ap     5.247304
      98Ap     5.355230    77App    5.356676    78App    5.478840

    Beta Occupied:

       1Ap   -10.167980     1App  -10.167714     2Ap   -10.167699
       3Ap   -10.166634     4Ap    -0.781054     2App   -0.684095
       5Ap    -0.683867     6Ap    -0.511773     3App   -0.431260
       7Ap    -0.431142     8Ap    -0.421576     4App   -0.376455
       9Ap    -0.376394     5App   -0.362879     6App   -0.333228
      10Ap    -0.333106

    Beta Virtual:

      11Ap    -0.025891    12Ap     0.077100    13Ap     0.135058
       7App    0.135109     8App    0.144509    14Ap     0.144632
      15Ap     0.163305     9App    0.182312    16Ap     0.182358
      10App    0.215162    17Ap     0.218862    18Ap     0.281948
      11App    0.282464    19Ap     0.400346    12App    0.400422
      20Ap     0.419807    13App    0.426841    21Ap     0.426960
      22Ap     0.468433    14App    0.497646    23Ap     0.497759
      15App    0.513795    24Ap     0.556280    25Ap     0.584154
      16App    0.584741    26Ap     0.597243    17App    0.597805
      27Ap     0.609713    28Ap     0.628246    18App    0.632074
      29Ap     0.639598    19App    0.639705    20App    0.666797
      30Ap     0.666864    31Ap     0.686457    21App    0.686561
      32Ap     0.757394    22App    0.830182    33Ap     0.830659
      23App    0.855318    34Ap     0.922722    24App    0.922936
      25App    0.945858    35Ap     0.953483    26App    0.966034
      36Ap     0.967321    37Ap     1.009632    27App    1.131945
      38Ap     1.132550    39Ap     1.155240    40Ap     1.168268
      28App    1.168277    41Ap     1.231869    42Ap     1.279660
      29App    1.279975    43Ap     1.284943    44Ap     1.329510
      30App    1.329524    45Ap     1.364367    46Ap     1.371522
      31App    1.371768    32App    1.393601    47Ap     1.406530
      33App    1.407217    48Ap     1.421149    34App    1.421940
      35App    1.427981    36App    1.493012    49Ap     1.508999
      37App    1.547454    50Ap     1.548000    38App    1.582304
      51Ap     1.582318    52Ap     1.675197    53Ap     1.744594
      39App    1.745365    54Ap     1.778887    55Ap     1.835090
      40App    1.836060    41App    1.973143    42App    2.025046
      56Ap     2.025155    57Ap     2.039442    58Ap     2.058167
      43App    2.059841    44App    2.746231    59Ap     2.746752
      45App    2.812103    60Ap     2.815793    61Ap     2.902259
      46App    2.902698    62Ap     2.924616    63Ap     2.932090
      47App    2.932118    48App    2.960223    49App    2.968779
      64Ap     2.969024    65Ap     3.041944    50App    3.080467
      66Ap     3.080730    51App    3.086235    67Ap     3.184206
      52App    3.184686    68Ap     3.188513    69Ap     3.290351
      53App    3.290490    70Ap     3.331595    54App    3.332227
      71Ap     3.383101    72Ap     3.492589    55App    3.492820
      56App    3.511934    73Ap     3.528483    57App    3.574462
      74Ap     3.581037    58App    3.581810    75Ap     3.670982
      59App    3.671129    76Ap     3.693931    77Ap     3.725387
      60App    3.725615    61App    3.779298    78Ap     3.781692
      79Ap     3.816407    80Ap     3.921901    62App    3.922406
      81Ap     4.044178    82Ap     4.117391    63App    4.119674
      83Ap     4.154634    64App    4.156489    84Ap     4.187225
      85Ap     4.208630    65App    4.208731    86Ap     4.210227
      66App    4.215266    87Ap     4.322373    67App    4.323940
      68App    4.362504    69App    4.431890    88Ap     4.432300
      70App    4.447194    89Ap     4.524352    71App    4.525177
      90Ap     4.588598    72App    4.589268    91Ap     4.623778
      92Ap     4.719474    73App    4.780209    93Ap     4.782343
      74App    4.839633    94Ap     4.967731    95Ap     5.005950
      75App    5.006643    96Ap     5.233656    76App    5.248110
      97Ap     5.249086    98Ap     5.361672    77App    5.363161
      78App    5.481160

    Final Occupation by Irrep:
             Ap   App
    DOCC [    10,    6 ]
    SOCC [     1,    0 ]

  @DF-UKS Final Energy:  -157.81306208540633

   => Energetics <=

    Nuclear Repulsion Energy =            125.3858919888120340
    One-Electron Energy =                -458.7313405551907408
    Two-Electron Energy =                 195.8392744216270103
    DFT Exchange-Correlation Energy =     -20.3068879406546188
    Empirical Dispersion Energy =           0.0000000000000000
    VV10 Nonlocal Energy =                  0.0000000000000000
    Total Energy =                       -157.8130620854063295

  UHF NO Occupations:
  HONO-2 :    9 Ap 1.9995999
  HONO-1 :   10 Ap 1.9989813
  HONO-0 :   11 Ap 1.0000000
  LUNO+0 :   12 Ap 0.0010187
  LUNO+1 :   13 Ap 0.0004001
  LUNO+2 :   14 Ap 0.0001980
  LUNO+3 :    7App 0.0001973

Computation Completed

Properties will be evaluated at   0.000000,   0.000000,   0.000000 [a0]

Properties computed using the SCF density matrix

  Nuclear Dipole Moment: [e a0]
     X:     0.8369      Y:     0.0033      Z:     0.0000

  Electronic Dipole Moment: [e a0]
     X:    -0.7591      Y:    -0.0033      Z:     0.0000

  Dipole Moment: [e a0]
     X:     0.0778      Y:    -0.0000      Z:     0.0000     Total:     0.0778

  Dipole Moment: [D]
     X:     0.1977      Y:    -0.0001      Z:     0.0000     Total:     0.1977

*** tstop() called on n079 at Fri Nov  5 13:37:23 2021
Module time:
	user time   =     494.38 seconds =       8.24 minutes
	system time =       4.64 seconds =       0.08 minutes
	total time  =        126 seconds =       2.10 minutes
Total time:
	user time   =     494.38 seconds =       8.24 minutes
	system time =       4.64 seconds =       0.08 minutes
	total time  =        126 seconds =       2.10 minutes
Grab this energy -157.81306208540633
    Psi4 stopped on: Friday, 05 November 2021 01:37PM
    Psi4 wall time for execution: 0:02:05.49

*** Psi4 exiting successfully. Buy a developer a beer!
