                               Psi4 1.4a2.dev629

  ==> Input File <==

--------------------------------------------------------------------------
import os
memory 14 GB

molecule {
 C   -0.3247910208   -0.0004360047    0.0000000000
 C    0.0621521473   -1.4018448359   -2.4256503193
 C    0.0615676652    2.8017693476    0.0000000000
 C    0.0621521473   -1.4018448359    2.4256503193
 H    2.0864321423   -1.6467411650   -2.8459686127
 H   -0.7681721628   -0.3864320871   -4.0273256346
 H   -0.7627789311   -3.2901254768   -2.3490761708
 H    2.0876615580    3.2881340325    0.0000000000
 H   -0.7661562353    3.6803977203    1.6755277015
 H   -0.7661562353    3.6803977203   -1.6755277015
 H    2.0864321423   -1.6467411650    2.8459686127
 H   -0.7627789311   -3.2901254768    2.3490761708
 H   -0.7681721628   -0.3864320871    4.0273256346
units bohr
0 2
}

basis {

assign 6-31g_2dfp_

[ 6-31g_2dfp_ ]

spherical

!----------------------------------------------------------------------
! Basis Set Exchange
! Version v0.8.13
! https://www.basissetexchange.org
!----------------------------------------------------------------------
!   Basis set: 6-31G(2df,p)
! Description: 6-31G(2df,p)
!        Role: orbital
!     Version: 0  (Data from the original Basis Set Exchange)
!----------------------------------------------------------------------

****
H     0
S    3   1.00
     18.7311370              0.03349460
      2.8253937              0.23472695
      0.6401217              0.81375733
S    1   1.00
      0.1612778              1.00000000
P    1   1.00
      1.5000000              1.0000000
P    1   1.00
      0.3750000              1.0000000
****
B     0
S    6   1.00
   2068.8823000              0.0018663
    310.6495700              0.0142515
     70.6830330              0.0695516
     19.8610800              0.2325729
      6.2993048              0.4670787
      2.1270270              0.3634314
SP   3   1.00
      4.7279710             -0.1303938              0.0745976
      1.1903377             -0.1307889              0.3078467
      0.3594117              1.1309444              0.7434568
SP   1   1.00
      0.1267512              1.0000000              1.0000000
D    1   1.00
      0.8020000              1.0000000
D    1   1.00
      0.2005000              1.0000000
F    1   1.00
      0.5000000              1.0000000
****
C     0
S    6   1.00
   3047.5249000              0.0018347
    457.3695100              0.0140373
    103.9486900              0.0688426
     29.2101550              0.2321844
      9.2866630              0.4679413
      3.1639270              0.3623120
SP   3   1.00
      7.8682724             -0.1193324              0.0689991
      1.8812885             -0.1608542              0.3164240
      0.5442493              1.1434564              0.7443083
SP   1   1.00
      0.1687144              1.0000000              1.0000000
D    1   1.00
      1.2520000              1.0000000
D    1   1.00
      0.3130000              1.0000000
F    1   1.00
      0.8000000              1.0000000
****
N     0
S    6   1.00
   4173.5110000              0.0018348
    627.4579000              0.0139950
    142.9021000              0.0685870
     40.2343300              0.2322410
     12.8202100              0.4690700
      4.3904370              0.3604550
SP   3   1.00
     11.6263580             -0.1149610              0.0675800
      2.7162800             -0.1691180              0.3239070
      0.7722180              1.1458520              0.7408950
SP   1   1.00
      0.2120313              1.0000000              1.0000000
D    1   1.00
      1.8260000              1.0000000
D    1   1.00
      0.4565000              1.0000000
F    1   1.00
      1.0000000              1.0000000
****
O     0
S    6   1.00
   5484.6717000              0.0018311
    825.2349500              0.0139501
    188.0469600              0.0684451
     52.9645000              0.2327143
     16.8975700              0.4701930
      5.7996353              0.3585209
SP   3   1.00
     15.5396160             -0.1107775              0.0708743
      3.5999336             -0.1480263              0.3397528
      1.0137618              1.1307670              0.7271586
SP   1   1.00
      0.2700058              1.0000000              1.0000000
D    1   1.00
      2.5840000              1.0000000
D    1   1.00
      0.6460000              1.0000000
F    1   1.00
      1.4000000              1.0000000
****
F     0
S    6   1.00
   7001.7130900              0.0018196169
   1051.3660900              0.0139160796
    239.2856900              0.0684053245
     67.3974453              0.233185760
     21.5199573              0.471267439
      7.40310130             0.356618546
SP   3   1.00
     20.8479528             -0.108506975            0.0716287243
      4.80830834            -0.146451658            0.3459121030
      1.34406986             1.128688580            0.7224699570
SP   1   1.00
      0.358151393            1.0000000              1.0000000
D    1   1.00
      3.5000000              1.0000000
D    1   1.00
      0.8750000              1.0000000
F    1   1.00
      1.8500000              1.0000000
****
Al     0
S    6   1.00
  13983.1000000              0.00194267
   2098.7500000              0.0148599
    477.7050000              0.0728494
    134.3600000              0.2468300
     42.8709000              0.4872580
     14.5189000              0.3234960
SP   6   1.00
    239.6680000             -0.00292619             0.00460285
     57.4419000             -0.0374080              0.0331990
     18.2859000             -0.1144870              0.1362820
      6.5991400              0.1156350              0.3304760
      2.4904900              0.6125950              0.4491460
      0.9445400              0.3937990              0.2657040
SP   3   1.00
      1.2779000             -0.2276060             -0.0175130
      0.3975900              0.00144583             0.2445330
      0.1600950              1.0927900              0.8049340
SP   1   1.00
      0.0556577              1.0000000              1.0000000
D    1   1.00
      0.6500000              1.0000000
D    1   1.00
      0.1625000              1.0000000
F    1   1.00
      0.2500000              1.0000000
****
Si     0
S    6   1.00
  16115.9000000              0.00195948
   2425.5800000              0.01492880
    553.8670000              0.07284780
    156.3400000              0.24613000
     50.0683000              0.48591400
     17.0178000              0.32500200
SP   6   1.00
    292.7180000             -0.00278094             0.00443826
     69.8731000             -0.03571460             0.03266790
     22.3363000             -0.11498500             0.13472100
      8.1503900              0.09356340             0.32867800
      3.1345800              0.60301700             0.44964000
      1.2254300              0.41895900             0.26137200
SP   3   1.00
      1.7273800             -0.24463000            -0.01779510
      0.5729220              0.00431572             0.25353900
      0.2221920              1.09818000             0.80066900
SP   1   1.00
      0.0778369              1.00000000             1.00000000
D    1   1.00
      0.9000000              1.0000000
D    1   1.00
      0.2250000              1.0000000
F    1   1.00
      0.3200000              1.0000000
****
P     0
S    6   1.00
  19413.3000000              0.0018516
   2909.4200000              0.0142062
    661.3640000              0.0699995
    185.7590000              0.2400790
     59.1943000              0.4847620
     20.0310000              0.3352000
SP   6   1.00
    339.4780000             -0.00278217             0.00456462
     81.0101000             -0.0360499              0.03369360
     25.8780000             -0.1166310              0.13975500
      9.4522100              0.0968328              0.33936200
      3.6656600              0.6144180              0.45092100
      1.4674600              0.4037980              0.23858600
SP   3   1.00
      2.1562300             -0.2529230             -0.01776530
      0.7489970              0.0328517              0.27405800
      0.2831450              1.0812500              0.78542100
SP   1   1.00
      0.0998317              1.0000000              1.00000000
D    1   1.00
      1.1000000              1.0000000
D    1   1.00
      0.2750000              1.0000000
F    1   1.00
      0.4500000              1.0000000
****
S     0
S    6   1.00
  21917.1000000              0.0018690
   3301.4900000              0.0142300
    754.1460000              0.0696960
    212.7110000              0.2384870
     67.9896000              0.4833070
     23.0515000              0.3380740
SP   6   1.00
    423.7350000             -0.0023767              0.0040610
    100.7100000             -0.0316930              0.0306810
     32.1599000             -0.1133170              0.1304520
     11.8079000              0.0560900              0.3272050
      4.6311000              0.5922550              0.4528510
      1.8702500              0.4550060              0.2560420
SP   3   1.00
      2.6158400             -0.2503740             -0.0145110
      0.9221670              0.0669570              0.3102630
      0.3412870              1.0545100              0.7544830
SP   1   1.00
      0.1171670              1.0000000              1.0000000
D    1   1.00
      1.3000000              1.0000000
D    1   1.00
      0.3250000              1.0000000
F    1   1.00
      0.5500000              1.0000000
****
Cl     0
S    6   1.00
  25180.1000000              0.0018330
   3780.3500000              0.0140340
    860.4740000              0.0690970
    242.1450000              0.2374520
     77.3349000              0.4830340
     26.2470000              0.3398560
SP   6   1.00
    491.7650000             -0.0022974              0.0039894
    116.9840000             -0.0307140              0.0303180
     37.4153000             -0.1125280              0.1298800
     13.7834000              0.0450160              0.3279510
      5.4521500              0.5893530              0.4535270
      2.2258800              0.4652060              0.2521540
SP   3   1.00
      3.1864900             -0.2518300             -0.0142990
      1.1442700              0.0615890              0.3235720
      0.4203770              1.0601800              0.7435070
SP   1   1.00
      0.1426570              1.0000000              1.0000000
D    1   1.00
      1.5000000              1.0000000
D    1   1.00
      0.3750000              1.0000000
F    1   1.00
      0.7000000              1.0000000
****
}

set {
reference uhf
freeze_core true
e_convergence 10
d_convergence 10
dft_spherical_points 1202
dft_radial_points 99
}

e = energy('b3lyp')

print_out('Grab this energy {0}'.format(e))
--------------------------------------------------------------------------

    Molecular point group: cs

    Geometry (in Bohr), charge = 0, multiplicity = 2:

       Center              X                  Y                   Z               Mass
    ------------   -----------------  -----------------  -----------------  -----------------
         C           -0.325006918804     0.000018270580     0.000000000000    12.000000000000
         C            0.061936249296    -1.401390560620    -2.425650319300    12.000000000000
         C            0.061351767196     2.802223622880     0.000000000000    12.000000000000
         C            0.061936249296    -1.401390560620     2.425650319300    12.000000000000
         H            2.086216244296    -1.646286889720    -2.845968612700     1.007825032230
         H           -0.768388060804    -0.385977811820    -4.027325634600     1.007825032230
         H           -0.762994829104    -3.289671201520    -2.349076170800     1.007825032230
         H            2.087445659996     3.288588307780     0.000000000000     1.007825032230
         H           -0.766372133304     3.680851995580     1.675527701500     1.007825032230
         H           -0.766372133304     3.680851995580    -1.675527701500     1.007825032230
         H            2.086216244296    -1.646286889720     2.845968612700     1.007825032230
         H           -0.762994829104    -3.289671201520     2.349076170800     1.007825032230
         H           -0.768388060804    -0.385977811820     4.027325634600     1.007825032230

  Charge       = 0
  Multiplicity = 2
  Basis Set: ANONYMOUSFF2C2770
    Blend: 6-31G_2DFP_
  Basis Set: (ANONYMOUSFF2C2770 AUX)
    Blend: DEF2-UNIVERSAL-JKFIT

    Orbital Energies [Eh]
    ---------------------

    Alpha Occupied:

       1Ap   -10.180407     1App  -10.167025     2Ap   -10.167019
       3Ap   -10.166975     4Ap    -0.797751     5Ap    -0.686230
       2App   -0.686111     6Ap    -0.530784     7Ap    -0.441182
       3App   -0.434796     8Ap    -0.434417     4App   -0.382729
       9Ap    -0.382684     5App   -0.363486    10Ap    -0.338069
       6App   -0.337743    11Ap    -0.169145

    Alpha Virtual:

      12Ap     0.076074     7App    0.134036    13Ap     0.134265
      14Ap     0.142397     8App    0.142811    15Ap     0.154962
      16Ap     0.178754     9App    0.178939    17Ap     0.203573
      10App    0.214756    18Ap     0.275704    11App    0.275923
      12App    0.398965    19Ap     0.399451    20Ap     0.403265
      13App    0.423907    21Ap     0.424231    22Ap     0.456687
      14App    0.495314    23Ap     0.495415    15App    0.512206
      24Ap     0.513880    25Ap     0.578884    16App    0.579007
      26Ap     0.591516    17App    0.591803    27Ap     0.602789
      28Ap     0.624635    18App    0.631710    29Ap     0.635859
      19App    0.636370    30Ap     0.663360    20App    0.663782
      21App    0.683555    31Ap     0.683946    32Ap     0.734797
      33Ap     0.825102    22App    0.825602    23App    0.853917
      24App    0.914745    34Ap     0.915178    25App    0.944174
      35Ap     0.944656    26App    0.961217    36Ap     0.961404
      37Ap     1.003456    27App    1.127936    38Ap     1.128484
      39Ap     1.142238    28App    1.163645    40Ap     1.163754
      41Ap     1.223161    42Ap     1.274180    29App    1.274669
      43Ap     1.279597    44Ap     1.323890    30App    1.324315
      45Ap     1.356227    46Ap     1.365385    31App    1.365971
      32App    1.392455    47Ap     1.404046    33App    1.404143
      34App    1.416640    48Ap     1.418057    35App    1.427951
      36App    1.491315    49Ap     1.499465    37App    1.542870
      50Ap     1.542904    51Ap     1.573951    38App    1.574377
      52Ap     1.669562    53Ap     1.738457    39App    1.739886
      54Ap     1.768375    40App    1.830210    55Ap     1.831793
      41App    1.971491    56Ap     2.016885    57Ap     2.019152
      42App    2.019937    58Ap     2.052515    43App    2.053559
      59Ap     2.738106    44App    2.738470    60Ap     2.791121
      45App    2.811396    61Ap     2.889560    46App    2.889853
      62Ap     2.895257    63Ap     2.929487    47App    2.929546
      48App    2.958894    64Ap     2.964204    49App    2.964367
      65Ap     3.034358    50App    3.069826    66Ap     3.071002
      51App    3.084356    67Ap     3.168482    52App    3.169320
      68Ap     3.180558    53App    3.285938    69Ap     3.286271
      70Ap     3.327126    54App    3.327918    71Ap     3.375793
      55App    3.489649    72Ap     3.490225    56App    3.513838
      73Ap     3.525791    57App    3.567656    74Ap     3.568546
      58App    3.575737    75Ap     3.665321    59App    3.666334
      76Ap     3.679419    60App    3.693947    77Ap     3.694439
      78Ap     3.776393    61App    3.776646    79Ap     3.787860
      62App    3.911623    80Ap     3.912778    81Ap     4.034133
      82Ap     4.110581    63App    4.111627    64App    4.147816
      83Ap     4.148294    84Ap     4.173284    85Ap     4.202304
      65App    4.202440    86Ap     4.204177    66App    4.211018
      67App    4.315513    87Ap     4.316815    68App    4.359457
      88Ap     4.423761    69App    4.424837    70App    4.443189
      89Ap     4.516090    71App    4.518187    90Ap     4.578391
      72App    4.578396    91Ap     4.617048    92Ap     4.709753
      93Ap     4.773484    73App    4.775422    74App    4.835711
      94Ap     4.962962    95Ap     5.002731    75App    5.003476
      96Ap     5.227482    76App    5.246578    97Ap     5.247229
      98Ap     5.354004    77App    5.356483    78App    5.479046

    Beta Occupied:

       1App  -10.167776     1Ap   -10.167770     2Ap   -10.167747
       3Ap   -10.166580     4Ap    -0.781080     5Ap    -0.684032
       2App   -0.683909     6Ap    -0.511747     3App   -0.431156
       7Ap    -0.430780     8Ap    -0.421908     4App   -0.376820
       9Ap    -0.376783     5App   -0.362469    10Ap    -0.333192
       6App   -0.332874

    Beta Virtual:

      11Ap    -0.025844    12Ap     0.077078     7App    0.134891
      13Ap     0.135170    14Ap     0.144244     8App    0.144711
      15Ap     0.163409    16Ap     0.182427     9App    0.182611
      10App    0.214986    17Ap     0.218934    18Ap     0.282066
      11App    0.282282    12App    0.400129    19Ap     0.400625
      20Ap     0.419685    13App    0.426720    21Ap     0.427045
      22Ap     0.468608    14App    0.497574    23Ap     0.497686
      15App    0.513937    24Ap     0.556226    25Ap     0.584422
      16App    0.584542    26Ap     0.597676    17App    0.598012
      27Ap     0.610187    28Ap     0.628036    18App    0.631867
      29Ap     0.639169    19App    0.639639    30Ap     0.666940
      20App    0.667335    21App    0.686206    31Ap     0.686552
      32Ap     0.757341    33Ap     0.830286    22App    0.830762
      23App    0.855266    24App    0.922746    34Ap     0.923140
      25App    0.946007    35Ap     0.953577    26App    0.966472
      36Ap     0.966697    37Ap     1.008716    27App    1.131975
      38Ap     1.132516    39Ap     1.155586    28App    1.168720
      40Ap     1.168820    41Ap     1.232130    42Ap     1.279774
      29App    1.280300    43Ap     1.285359    44Ap     1.328889
      30App    1.329311    45Ap     1.365618    46Ap     1.370686
      31App    1.371147    32App    1.393507    47Ap     1.407493
      33App    1.407625    34App    1.421717    48Ap     1.423037
      35App    1.428225    36App    1.492363    49Ap     1.509915
      37App    1.547250    50Ap     1.547338    51Ap     1.581822
      38App    1.582247    52Ap     1.674424    53Ap     1.744205
      39App    1.745660    54Ap     1.779133    40App    1.834051
      55Ap     1.835645    41App    1.972350    56Ap     2.025137
      42App    2.026308    57Ap     2.038693    58Ap     2.059249
      43App    2.060307    59Ap     2.746431    44App    2.746817
      45App    2.811816    60Ap     2.816238    61Ap     2.902250
      46App    2.902626    62Ap     2.924951    47App    2.931969
      63Ap     2.931998    48App    2.959969    64Ap     2.968751
      49App    2.968916    65Ap     3.042251    50App    3.079682
      66Ap     3.080951    51App    3.086262    67Ap     3.184159
      52App    3.184941    68Ap     3.188294    53App    3.290688
      69Ap     3.291041    70Ap     3.330905    54App    3.331763
      71Ap     3.383621    55App    3.492410    72Ap     3.492961
      56App    3.512207    73Ap     3.528845    57App    3.575601
      58App    3.580960    74Ap     3.582009    75Ap     3.670172
      59App    3.670934    76Ap     3.692721    60App    3.725768
      77Ap     3.725882    78Ap     3.780939    61App    3.781245
      79Ap     3.816391    62App    3.921336    80Ap     3.922623
      81Ap     4.045049    82Ap     4.117176    63App    4.118639
      64App    4.154803    83Ap     4.155763    84Ap     4.187281
      65App    4.208395    85Ap     4.210083    86Ap     4.210294
      66App    4.215481    67App    4.323020    87Ap     4.324235
      68App    4.362819    88Ap     4.431956    69App    4.432985
      70App    4.446077    89Ap     4.523855    71App    4.525966
      90Ap     4.588993    72App    4.589064    91Ap     4.624233
      92Ap     4.720123    93Ap     4.780480    73App    4.782362
      74App    4.838639    94Ap     4.967753    95Ap     5.006759
      75App    5.007499    96Ap     5.233094    76App    5.248377
      97Ap     5.249108    98Ap     5.360501    77App    5.362957
      78App    5.481375

    Final Occupation by Irrep:
             Ap   App
    DOCC [    10,    6 ]
    SOCC [     1,    0 ]

  @DF-UKS Final Energy:  -157.81305214455048

   => Energetics <=

    Nuclear Repulsion Energy =            125.3922251745821370
    One-Electron Energy =                -458.7442546834917607
    Two-Electron Energy =                 195.8460544005407655
    DFT Exchange-Correlation Energy =     -20.3070770361816493
    Empirical Dispersion Energy =           0.0000000000000000
    VV10 Nonlocal Energy =                  0.0000000000000000
    Total Energy =                       -157.8130521445504826

  UHF NO Occupations:
  HONO-2 :    9 Ap 1.9996024
  HONO-1 :   10 Ap 1.9989820
  HONO-0 :   11 Ap 1.0000000
  LUNO+0 :   12 Ap 0.0010180
  LUNO+1 :   13 Ap 0.0003976
  LUNO+2 :    7App 0.0001977
  LUNO+3 :   14 Ap 0.0001976

Computation Completed

Properties will be evaluated at   0.000000,   0.000000,   0.000000 [a0]

Properties computed using the SCF density matrix

  Nuclear Dipole Moment: [e a0]
     X:     0.8257      Y:     0.0032      Z:     0.0000

  Electronic Dipole Moment: [e a0]
     X:    -0.7470      Y:    -0.0049      Z:     0.0000

  Dipole Moment: [e a0]
     X:     0.0787      Y:    -0.0017      Z:     0.0000     Total:     0.0787

  Dipole Moment: [D]
     X:     0.2000      Y:    -0.0044      Z:     0.0000     Total:     0.2001

*** tstop() called on n049 at Fri Nov  5 11:34:29 2021
Module time:
	user time   =     513.24 seconds =       8.55 minutes
	system time =      11.44 seconds =       0.19 minutes
	total time  =        132 seconds =       2.20 minutes
Total time:
	user time   =     513.24 seconds =       8.55 minutes
	system time =      11.44 seconds =       0.19 minutes
	total time  =        132 seconds =       2.20 minutes
Grab this energy -157.81305214455048
    Psi4 stopped on: Friday, 05 November 2021 11:34AM
    Psi4 wall time for execution: 0:02:12.00

*** Psi4 exiting successfully. Buy a developer a beer!
