                               Psi4 1.4a2.dev629

  ==> Input File <==

--------------------------------------------------------------------------
import os
memory 14 GB

molecule {
 C   -0.3233300973    0.0053506388    0.0049986006
 C    0.0617398535   -1.3939080867   -2.4224540850
 C    0.0608720974    2.8018037844   -0.0062154056
 C    0.0606913303   -1.4061434251    2.4312000810
 H    2.0874945200   -1.6362128870   -2.8431863730
 H   -0.7666175950   -0.3795128944   -4.0178257354
 H   -0.7625751765   -3.2871804555   -2.3495518898
 H    2.0870324171    3.2874796406   -0.0111331174
 H   -0.7628326315    3.6869985557    1.6674467878
 H   -0.7683581854    3.6718072635   -1.6862957819
 H    2.0861409780   -1.6537763736    2.8513323956
 H   -0.7671720330   -3.2987088812    2.3499741496
 H   -0.7656933545   -0.3980211931    4.0317103736
units bohr
0 2
}

basis {

assign 6-31g_2dfp_

[ 6-31g_2dfp_ ]

spherical

!----------------------------------------------------------------------
! Basis Set Exchange
! Version v0.8.13
! https://www.basissetexchange.org
!----------------------------------------------------------------------
!   Basis set: 6-31G(2df,p)
! Description: 6-31G(2df,p)
!        Role: orbital
!     Version: 0  (Data from the original Basis Set Exchange)
!----------------------------------------------------------------------

****
H     0
S    3   1.00
     18.7311370              0.03349460
      2.8253937              0.23472695
      0.6401217              0.81375733
S    1   1.00
      0.1612778              1.00000000
P    1   1.00
      1.5000000              1.0000000
P    1   1.00
      0.3750000              1.0000000
****
B     0
S    6   1.00
   2068.8823000              0.0018663
    310.6495700              0.0142515
     70.6830330              0.0695516
     19.8610800              0.2325729
      6.2993048              0.4670787
      2.1270270              0.3634314
SP   3   1.00
      4.7279710             -0.1303938              0.0745976
      1.1903377             -0.1307889              0.3078467
      0.3594117              1.1309444              0.7434568
SP   1   1.00
      0.1267512              1.0000000              1.0000000
D    1   1.00
      0.8020000              1.0000000
D    1   1.00
      0.2005000              1.0000000
F    1   1.00
      0.5000000              1.0000000
****
C     0
S    6   1.00
   3047.5249000              0.0018347
    457.3695100              0.0140373
    103.9486900              0.0688426
     29.2101550              0.2321844
      9.2866630              0.4679413
      3.1639270              0.3623120
SP   3   1.00
      7.8682724             -0.1193324              0.0689991
      1.8812885             -0.1608542              0.3164240
      0.5442493              1.1434564              0.7443083
SP   1   1.00
      0.1687144              1.0000000              1.0000000
D    1   1.00
      1.2520000              1.0000000
D    1   1.00
      0.3130000              1.0000000
F    1   1.00
      0.8000000              1.0000000
****
N     0
S    6   1.00
   4173.5110000              0.0018348
    627.4579000              0.0139950
    142.9021000              0.0685870
     40.2343300              0.2322410
     12.8202100              0.4690700
      4.3904370              0.3604550
SP   3   1.00
     11.6263580             -0.1149610              0.0675800
      2.7162800             -0.1691180              0.3239070
      0.7722180              1.1458520              0.7408950
SP   1   1.00
      0.2120313              1.0000000              1.0000000
D    1   1.00
      1.8260000              1.0000000
D    1   1.00
      0.4565000              1.0000000
F    1   1.00
      1.0000000              1.0000000
****
O     0
S    6   1.00
   5484.6717000              0.0018311
    825.2349500              0.0139501
    188.0469600              0.0684451
     52.9645000              0.2327143
     16.8975700              0.4701930
      5.7996353              0.3585209
SP   3   1.00
     15.5396160             -0.1107775              0.0708743
      3.5999336             -0.1480263              0.3397528
      1.0137618              1.1307670              0.7271586
SP   1   1.00
      0.2700058              1.0000000              1.0000000
D    1   1.00
      2.5840000              1.0000000
D    1   1.00
      0.6460000              1.0000000
F    1   1.00
      1.4000000              1.0000000
****
F     0
S    6   1.00
   7001.7130900              0.0018196169
   1051.3660900              0.0139160796
    239.2856900              0.0684053245
     67.3974453              0.233185760
     21.5199573              0.471267439
      7.40310130             0.356618546
SP   3   1.00
     20.8479528             -0.108506975            0.0716287243
      4.80830834            -0.146451658            0.3459121030
      1.34406986             1.128688580            0.7224699570
SP   1   1.00
      0.358151393            1.0000000              1.0000000
D    1   1.00
      3.5000000              1.0000000
D    1   1.00
      0.8750000              1.0000000
F    1   1.00
      1.8500000              1.0000000
****
Al     0
S    6   1.00
  13983.1000000              0.00194267
   2098.7500000              0.0148599
    477.7050000              0.0728494
    134.3600000              0.2468300
     42.8709000              0.4872580
     14.5189000              0.3234960
SP   6   1.00
    239.6680000             -0.00292619             0.00460285
     57.4419000             -0.0374080              0.0331990
     18.2859000             -0.1144870              0.1362820
      6.5991400              0.1156350              0.3304760
      2.4904900              0.6125950              0.4491460
      0.9445400              0.3937990              0.2657040
SP   3   1.00
      1.2779000             -0.2276060             -0.0175130
      0.3975900              0.00144583             0.2445330
      0.1600950              1.0927900              0.8049340
SP   1   1.00
      0.0556577              1.0000000              1.0000000
D    1   1.00
      0.6500000              1.0000000
D    1   1.00
      0.1625000              1.0000000
F    1   1.00
      0.2500000              1.0000000
****
Si     0
S    6   1.00
  16115.9000000              0.00195948
   2425.5800000              0.01492880
    553.8670000              0.07284780
    156.3400000              0.24613000
     50.0683000              0.48591400
     17.0178000              0.32500200
SP   6   1.00
    292.7180000             -0.00278094             0.00443826
     69.8731000             -0.03571460             0.03266790
     22.3363000             -0.11498500             0.13472100
      8.1503900              0.09356340             0.32867800
      3.1345800              0.60301700             0.44964000
      1.2254300              0.41895900             0.26137200
SP   3   1.00
      1.7273800             -0.24463000            -0.01779510
      0.5729220              0.00431572             0.25353900
      0.2221920              1.09818000             0.80066900
SP   1   1.00
      0.0778369              1.00000000             1.00000000
D    1   1.00
      0.9000000              1.0000000
D    1   1.00
      0.2250000              1.0000000
F    1   1.00
      0.3200000              1.0000000
****
P     0
S    6   1.00
  19413.3000000              0.0018516
   2909.4200000              0.0142062
    661.3640000              0.0699995
    185.7590000              0.2400790
     59.1943000              0.4847620
     20.0310000              0.3352000
SP   6   1.00
    339.4780000             -0.00278217             0.00456462
     81.0101000             -0.0360499              0.03369360
     25.8780000             -0.1166310              0.13975500
      9.4522100              0.0968328              0.33936200
      3.6656600              0.6144180              0.45092100
      1.4674600              0.4037980              0.23858600
SP   3   1.00
      2.1562300             -0.2529230             -0.01776530
      0.7489970              0.0328517              0.27405800
      0.2831450              1.0812500              0.78542100
SP   1   1.00
      0.0998317              1.0000000              1.00000000
D    1   1.00
      1.1000000              1.0000000
D    1   1.00
      0.2750000              1.0000000
F    1   1.00
      0.4500000              1.0000000
****
S     0
S    6   1.00
  21917.1000000              0.0018690
   3301.4900000              0.0142300
    754.1460000              0.0696960
    212.7110000              0.2384870
     67.9896000              0.4833070
     23.0515000              0.3380740
SP   6   1.00
    423.7350000             -0.0023767              0.0040610
    100.7100000             -0.0316930              0.0306810
     32.1599000             -0.1133170              0.1304520
     11.8079000              0.0560900              0.3272050
      4.6311000              0.5922550              0.4528510
      1.8702500              0.4550060              0.2560420
SP   3   1.00
      2.6158400             -0.2503740             -0.0145110
      0.9221670              0.0669570              0.3102630
      0.3412870              1.0545100              0.7544830
SP   1   1.00
      0.1171670              1.0000000              1.0000000
D    1   1.00
      1.3000000              1.0000000
D    1   1.00
      0.3250000              1.0000000
F    1   1.00
      0.5500000              1.0000000
****
Cl     0
S    6   1.00
  25180.1000000              0.0018330
   3780.3500000              0.0140340
    860.4740000              0.0690970
    242.1450000              0.2374520
     77.3349000              0.4830340
     26.2470000              0.3398560
SP   6   1.00
    491.7650000             -0.0022974              0.0039894
    116.9840000             -0.0307140              0.0303180
     37.4153000             -0.1125280              0.1298800
     13.7834000              0.0450160              0.3279510
      5.4521500              0.5893530              0.4535270
      2.2258800              0.4652060              0.2521540
SP   3   1.00
      3.1864900             -0.2518300             -0.0142990
      1.1442700              0.0615890              0.3235720
      0.4203770              1.0601800              0.7435070
SP   1   1.00
      0.1426570              1.0000000              1.0000000
D    1   1.00
      1.5000000              1.0000000
D    1   1.00
      0.3750000              1.0000000
F    1   1.00
      0.7000000              1.0000000
****
}

set {
reference uhf
freeze_core true
e_convergence 10
d_convergence 10
dft_spherical_points 1202
dft_radial_points 99
}

e = energy('b3lyp')

print_out('Grab this energy {0}'.format(e))
--------------------------------------------------------------------------

    Molecular point group: c1

    Geometry (in Bohr), charge = 0, multiplicity = 2:

       Center              X                  Y                   Z               Mass
    ------------   -----------------  -----------------  -----------------  -----------------
         C           -0.323332633691     0.003982996266     0.003548424182    12.000000000000
         C            0.061737317109    -1.395275729234    -2.423904261418    12.000000000000
         C            0.060869561009     2.800436141866    -0.007665582018    12.000000000000
         C            0.060688793909    -1.407511067634     2.429749904582    12.000000000000
         H            2.087491983609    -1.637580529534    -2.844636549418     1.007825032230
         H           -0.766620131391    -0.380880536934    -4.019275911818     1.007825032230
         H           -0.762577712891    -3.288548098034    -2.351002066218     1.007825032230
         H            2.087029880709     3.286111998066    -0.012583293818     1.007825032230
         H           -0.762835167891     3.685630913166     1.665996611382     1.007825032230
         H           -0.768360721791     3.670439620966    -1.687745958318     1.007825032230
         H            2.086138441609    -1.655144016134     2.849882219182     1.007825032230
         H           -0.767174569391    -3.300076523734     2.348523973182     1.007825032230
         H           -0.765695890891    -0.399388835634     4.030260197182     1.007825032230

  Charge       = 0
  Multiplicity = 2
  Basis Set: ANONYMOUSC3A7E50F
    Blend: 6-31G_2DFP_
  Basis Set: (ANONYMOUSC3A7E50F AUX)
    Blend: DEF2-UNIVERSAL-JKFIT

    Orbital Energies [Eh]
    ---------------------

    Alpha Occupied:

       1A    -10.180341     2A    -10.167303     3A    -10.166982
       4A    -10.166760     5A     -0.797773     6A     -0.686474
       7A     -0.685897     8A     -0.530776     9A     -0.441133
      10A     -0.435010    11A     -0.434328    12A     -0.382785
      13A     -0.382414    14A     -0.363608    15A     -0.338580
      16A     -0.337413    17A     -0.168961

    Alpha Virtual:

      18A      0.076072    19A      0.133915    20A      0.134395
      21A      0.142402    22A      0.142850    23A      0.154880
      24A      0.178556    25A      0.179002    26A      0.203541
      27A      0.214807    28A      0.275650    29A      0.276321
      30A      0.398985    31A      0.399409    32A      0.403412
      33A      0.423968    34A      0.424237    35A      0.456595
      36A      0.494982    37A      0.495787    38A      0.512172
      39A      0.513985    40A      0.578483    41A      0.579119
      42A      0.591624    43A      0.591668    44A      0.602577
      45A      0.624757    46A      0.631767    47A      0.635991
      48A      0.636524    49A      0.663187    50A      0.663641
      51A      0.683608    52A      0.684102    53A      0.734993
      54A      0.824574    55A      0.826227    56A      0.853915
      57A      0.914765    58A      0.915282    59A      0.944053
      60A      0.944521    61A      0.961076    62A      0.961715
      63A      1.003470    64A      1.126926    65A      1.129267
      66A      1.142262    67A      1.162649    68A      1.163881
      69A      1.223336    70A      1.273795    71A      1.275196
      72A      1.279354    73A      1.324236    74A      1.324471
      75A      1.355993    76A      1.365266    77A      1.366791
      78A      1.392412    79A      1.403292    80A      1.404881
      81A      1.416538    82A      1.417708    83A      1.427942
      84A      1.491432    85A      1.499064    86A      1.542489
      87A      1.543187    88A      1.572648    89A      1.576354
      90A      1.669818    91A      1.738318    92A      1.740490
      93A      1.768344    94A      1.830826    95A      1.831972
      96A      1.971728    97A      2.017511    98A      2.018269
      99A      2.020585   100A      2.050094   101A      2.055299
     102A      2.738128   103A      2.738844   104A      2.790922
     105A      2.811436   106A      2.889375   107A      2.890516
     108A      2.894941   109A      2.929070   110A      2.929917
     111A      2.958987   112A      2.963470   113A      2.965317
     114A      3.034004   115A      3.070165   116A      3.072387
     117A      3.084383   118A      3.167978   119A      3.169575
     120A      3.180629   121A      3.284538   122A      3.286070
     123A      3.326131   124A      3.328193   125A      3.375652
     126A      3.489433   127A      3.490783   128A      3.514046
     129A      3.525314   130A      3.567121   131A      3.569540
     132A      3.575351   133A      3.666064   134A      3.666708
     135A      3.679664   136A      3.693678   137A      3.694516
     138A      3.775592   139A      3.777910   140A      3.789331
     141A      3.910720   142A      3.913740   143A      4.034454
     144A      4.109968   145A      4.112786   146A      4.146164
     147A      4.150034   148A      4.173248   149A      4.201103
     150A      4.202813   151A      4.204844   152A      4.210971
     153A      4.315403   154A      4.316509   155A      4.359004
     156A      4.424296   157A      4.424473   158A      4.443558
     159A      4.516005   160A      4.517706   161A      4.577017
     162A      4.579225   163A      4.617835   164A      4.709454
     165A      4.773205   166A      4.776023   167A      4.836932
     168A      4.962821   169A      5.001986   170A      5.003989
     171A      5.228027   172A      5.246671   173A      5.246989
     174A      5.354611   175A      5.356393   176A      5.479330

    Beta Occupied:

       1A    -10.168058     2A    -10.167745     3A    -10.167522
       4A    -10.166518     5A     -0.781098     6A     -0.684272
       7A     -0.683704     8A     -0.511747     9A     -0.431390
      10A     -0.430700    11A     -0.421819    12A     -0.376857
      13A     -0.376513    14A     -0.362591    15A     -0.333714
      16A     -0.332525

    Beta Virtual:

      17A     -0.025743    18A      0.077081    19A      0.134794
      20A      0.135295    21A      0.144286    22A      0.144709
      23A      0.163340    24A      0.182217    25A      0.182684
      26A      0.215037    27A      0.218923    28A      0.282020
      29A      0.282646    30A      0.400222    31A      0.400567
      32A      0.419799    33A      0.426763    34A      0.427063
      35A      0.468505    36A      0.497242    37A      0.498052
      38A      0.513908    39A      0.556324    40A      0.584043
      41A      0.584665    42A      0.597787    43A      0.597859
      44A      0.609997    45A      0.628137    46A      0.631925
      47A      0.639252    48A      0.639835    49A      0.666727
      50A      0.667227    51A      0.686193    52A      0.686789
      53A      0.757515    54A      0.829732    55A      0.831405
      56A      0.855268    57A      0.922715    58A      0.923272
      59A      0.945912    60A      0.953435    61A      0.966339
      62A      0.967063    63A      1.008708    64A      1.130968
      65A      1.133307    66A      1.155612    67A      1.167702
      68A      1.168978    69A      1.232306    70A      1.279421
      71A      1.280768    72A      1.285105    73A      1.329223
      74A      1.329463    75A      1.365409    76A      1.370421
      77A      1.372117    78A      1.393477    79A      1.406782
      80A      1.408325    81A      1.421586    82A      1.422748
      83A      1.428218    84A      1.492484    85A      1.509507
      86A      1.546794    87A      1.547695    88A      1.580665
      89A      1.584082    90A      1.674665    91A      1.744082
      92A      1.746251    93A      1.779122    94A      1.834659
      95A      1.835849    96A      1.972590    97A      2.023857
      98A      2.027029    99A      2.039637   100A      2.056916
     101A      2.061923   102A      2.746409   103A      2.747234
     104A      2.811849   105A      2.816057   106A      2.902155
     107A      2.903110   108A      2.924644   109A      2.931532
     110A      2.932426   111A      2.960055   112A      2.968046
     113A      2.969824   114A      3.041939   115A      3.079977
     116A      3.082250   117A      3.086352   118A      3.183759
     119A      3.185164   120A      3.188427   121A      3.289418
     122A      3.290793   123A      3.329928   124A      3.332008
     125A      3.383469   126A      3.492161   127A      3.493501
     128A      3.512427   129A      3.528368   130A      3.574748
     131A      3.580803   132A      3.582999   133A      3.670862
     134A      3.671394   135A      3.692961   136A      3.725335
     137A      3.726119   138A      3.780200   139A      3.782444
     140A      3.817777   141A      3.920538   142A      3.923562
     143A      4.045341   144A      4.116801   145A      4.119585
     146A      4.153436   147A      4.157183   148A      4.187307
     149A      4.207105   150A      4.210407   151A      4.211066
     152A      4.215470   153A      4.322778   154A      4.324013
     155A      4.362368   156A      4.432533   157A      4.432613
     158A      4.446499   159A      4.523877   160A      4.525407
     161A      4.587526   162A      4.589895   163A      4.625049
     164A      4.719802   165A      4.780111   166A      4.783022
     167A      4.839851   168A      4.967611   169A      5.006033
     170A      5.008024   171A      5.233740   172A      5.248452
     173A      5.248779   174A      5.361061   175A      5.362904
     176A      5.481651

    Final Occupation by Irrep:
              A
    DOCC [    16 ]
    SOCC [     1 ]

  @DF-UKS Final Energy:  -157.81305634840771

   => Energetics <=

    Nuclear Repulsion Energy =            125.3949337147446101
    One-Electron Energy =                -458.7494966012459372
    Two-Electron Energy =                 195.8486554314178818
    DFT Exchange-Correlation Energy =     -20.3071488933243032
    Empirical Dispersion Energy =           0.0000000000000000
    VV10 Nonlocal Energy =                  0.0000000000000000
    Total Energy =                       -157.8130563484077129

  UHF NO Occupations:
  HONO-2 :   15  A 1.9996009
  HONO-1 :   16  A 1.9989804
  HONO-0 :   17  A 1.0000000
  LUNO+0 :   18  A 0.0010196
  LUNO+1 :   19  A 0.0003991
  LUNO+2 :   20  A 0.0001987
  LUNO+3 :   21  A 0.0001964

Computation Completed

Properties will be evaluated at   0.000000,   0.000000,   0.000000 [a0]

Properties computed using the SCF density matrix

  Nuclear Dipole Moment: [e a0]
     X:     0.8272      Y:    -0.0096      Z:    -0.0102

  Electronic Dipole Moment: [e a0]
     X:    -0.7493      Y:     0.0109      Z:     0.0110

  Dipole Moment: [e a0]
     X:     0.0779      Y:     0.0012      Z:     0.0008     Total:     0.0779

  Dipole Moment: [D]
     X:     0.1980      Y:     0.0031      Z:     0.0019     Total:     0.1981

*** tstop() called on n079 at Fri Nov  5 13:51:16 2021
Module time:
	user time   =     525.63 seconds =       8.76 minutes
	system time =       4.70 seconds =       0.08 minutes
	total time  =        134 seconds =       2.23 minutes
Total time:
	user time   =     525.63 seconds =       8.76 minutes
	system time =       4.70 seconds =       0.08 minutes
	total time  =        134 seconds =       2.23 minutes
Grab this energy -157.8130563484077
    Psi4 stopped on: Friday, 05 November 2021 01:51PM
    Psi4 wall time for execution: 0:02:13.31

*** Psi4 exiting successfully. Buy a developer a beer!
