                               Psi4 1.4a2.dev629

  ==> Input File <==

--------------------------------------------------------------------------
import os
memory 14 GB

molecule {
 C   -0.3233416255    0.0024261175    0.0024260264
 C    0.0622272355   -1.4013378167   -2.4280945396
 C    0.0602233524    2.8005058464    0.0012509748
 C    0.0608474020   -1.3991666983    2.4268361747
 H    2.0904462119   -1.6446027045   -2.8458534475
 H   -0.7618714159   -0.3899477477   -4.0302568706
 H   -0.7652302256   -3.2920959423   -2.3522589678
 H    2.0842214764    3.2889208737   -0.0033507522
 H   -0.7627008510    3.6802674957    1.6800759202
 H   -0.7714167226    3.6744775818   -1.6733896789
 H    2.0859858462   -1.6482048412    2.8454114669
 H   -0.7720281506   -3.2856089833    2.3468935907
 H   -0.7599704098   -0.3856574947    4.0303101027
units bohr
0 2
}

basis {

assign 6-31g_2dfp_

[ 6-31g_2dfp_ ]

spherical

!----------------------------------------------------------------------
! Basis Set Exchange
! Version v0.8.13
! https://www.basissetexchange.org
!----------------------------------------------------------------------
!   Basis set: 6-31G(2df,p)
! Description: 6-31G(2df,p)
!        Role: orbital
!     Version: 0  (Data from the original Basis Set Exchange)
!----------------------------------------------------------------------

****
H     0
S    3   1.00
     18.7311370              0.03349460
      2.8253937              0.23472695
      0.6401217              0.81375733
S    1   1.00
      0.1612778              1.00000000
P    1   1.00
      1.5000000              1.0000000
P    1   1.00
      0.3750000              1.0000000
****
B     0
S    6   1.00
   2068.8823000              0.0018663
    310.6495700              0.0142515
     70.6830330              0.0695516
     19.8610800              0.2325729
      6.2993048              0.4670787
      2.1270270              0.3634314
SP   3   1.00
      4.7279710             -0.1303938              0.0745976
      1.1903377             -0.1307889              0.3078467
      0.3594117              1.1309444              0.7434568
SP   1   1.00
      0.1267512              1.0000000              1.0000000
D    1   1.00
      0.8020000              1.0000000
D    1   1.00
      0.2005000              1.0000000
F    1   1.00
      0.5000000              1.0000000
****
C     0
S    6   1.00
   3047.5249000              0.0018347
    457.3695100              0.0140373
    103.9486900              0.0688426
     29.2101550              0.2321844
      9.2866630              0.4679413
      3.1639270              0.3623120
SP   3   1.00
      7.8682724             -0.1193324              0.0689991
      1.8812885             -0.1608542              0.3164240
      0.5442493              1.1434564              0.7443083
SP   1   1.00
      0.1687144              1.0000000              1.0000000
D    1   1.00
      1.2520000              1.0000000
D    1   1.00
      0.3130000              1.0000000
F    1   1.00
      0.8000000              1.0000000
****
N     0
S    6   1.00
   4173.5110000              0.0018348
    627.4579000              0.0139950
    142.9021000              0.0685870
     40.2343300              0.2322410
     12.8202100              0.4690700
      4.3904370              0.3604550
SP   3   1.00
     11.6263580             -0.1149610              0.0675800
      2.7162800             -0.1691180              0.3239070
      0.7722180              1.1458520              0.7408950
SP   1   1.00
      0.2120313              1.0000000              1.0000000
D    1   1.00
      1.8260000              1.0000000
D    1   1.00
      0.4565000              1.0000000
F    1   1.00
      1.0000000              1.0000000
****
O     0
S    6   1.00
   5484.6717000              0.0018311
    825.2349500              0.0139501
    188.0469600              0.0684451
     52.9645000              0.2327143
     16.8975700              0.4701930
      5.7996353              0.3585209
SP   3   1.00
     15.5396160             -0.1107775              0.0708743
      3.5999336             -0.1480263              0.3397528
      1.0137618              1.1307670              0.7271586
SP   1   1.00
      0.2700058              1.0000000              1.0000000
D    1   1.00
      2.5840000              1.0000000
D    1   1.00
      0.6460000              1.0000000
F    1   1.00
      1.4000000              1.0000000
****
F     0
S    6   1.00
   7001.7130900              0.0018196169
   1051.3660900              0.0139160796
    239.2856900              0.0684053245
     67.3974453              0.233185760
     21.5199573              0.471267439
      7.40310130             0.356618546
SP   3   1.00
     20.8479528             -0.108506975            0.0716287243
      4.80830834            -0.146451658            0.3459121030
      1.34406986             1.128688580            0.7224699570
SP   1   1.00
      0.358151393            1.0000000              1.0000000
D    1   1.00
      3.5000000              1.0000000
D    1   1.00
      0.8750000              1.0000000
F    1   1.00
      1.8500000              1.0000000
****
Al     0
S    6   1.00
  13983.1000000              0.00194267
   2098.7500000              0.0148599
    477.7050000              0.0728494
    134.3600000              0.2468300
     42.8709000              0.4872580
     14.5189000              0.3234960
SP   6   1.00
    239.6680000             -0.00292619             0.00460285
     57.4419000             -0.0374080              0.0331990
     18.2859000             -0.1144870              0.1362820
      6.5991400              0.1156350              0.3304760
      2.4904900              0.6125950              0.4491460
      0.9445400              0.3937990              0.2657040
SP   3   1.00
      1.2779000             -0.2276060             -0.0175130
      0.3975900              0.00144583             0.2445330
      0.1600950              1.0927900              0.8049340
SP   1   1.00
      0.0556577              1.0000000              1.0000000
D    1   1.00
      0.6500000              1.0000000
D    1   1.00
      0.1625000              1.0000000
F    1   1.00
      0.2500000              1.0000000
****
Si     0
S    6   1.00
  16115.9000000              0.00195948
   2425.5800000              0.01492880
    553.8670000              0.07284780
    156.3400000              0.24613000
     50.0683000              0.48591400
     17.0178000              0.32500200
SP   6   1.00
    292.7180000             -0.00278094             0.00443826
     69.8731000             -0.03571460             0.03266790
     22.3363000             -0.11498500             0.13472100
      8.1503900              0.09356340             0.32867800
      3.1345800              0.60301700             0.44964000
      1.2254300              0.41895900             0.26137200
SP   3   1.00
      1.7273800             -0.24463000            -0.01779510
      0.5729220              0.00431572             0.25353900
      0.2221920              1.09818000             0.80066900
SP   1   1.00
      0.0778369              1.00000000             1.00000000
D    1   1.00
      0.9000000              1.0000000
D    1   1.00
      0.2250000              1.0000000
F    1   1.00
      0.3200000              1.0000000
****
P     0
S    6   1.00
  19413.3000000              0.0018516
   2909.4200000              0.0142062
    661.3640000              0.0699995
    185.7590000              0.2400790
     59.1943000              0.4847620
     20.0310000              0.3352000
SP   6   1.00
    339.4780000             -0.00278217             0.00456462
     81.0101000             -0.0360499              0.03369360
     25.8780000             -0.1166310              0.13975500
      9.4522100              0.0968328              0.33936200
      3.6656600              0.6144180              0.45092100
      1.4674600              0.4037980              0.23858600
SP   3   1.00
      2.1562300             -0.2529230             -0.01776530
      0.7489970              0.0328517              0.27405800
      0.2831450              1.0812500              0.78542100
SP   1   1.00
      0.0998317              1.0000000              1.00000000
D    1   1.00
      1.1000000              1.0000000
D    1   1.00
      0.2750000              1.0000000
F    1   1.00
      0.4500000              1.0000000
****
S     0
S    6   1.00
  21917.1000000              0.0018690
   3301.4900000              0.0142300
    754.1460000              0.0696960
    212.7110000              0.2384870
     67.9896000              0.4833070
     23.0515000              0.3380740
SP   6   1.00
    423.7350000             -0.0023767              0.0040610
    100.7100000             -0.0316930              0.0306810
     32.1599000             -0.1133170              0.1304520
     11.8079000              0.0560900              0.3272050
      4.6311000              0.5922550              0.4528510
      1.8702500              0.4550060              0.2560420
SP   3   1.00
      2.6158400             -0.2503740             -0.0145110
      0.9221670              0.0669570              0.3102630
      0.3412870              1.0545100              0.7544830
SP   1   1.00
      0.1171670              1.0000000              1.0000000
D    1   1.00
      1.3000000              1.0000000
D    1   1.00
      0.3250000              1.0000000
F    1   1.00
      0.5500000              1.0000000
****
Cl     0
S    6   1.00
  25180.1000000              0.0018330
   3780.3500000              0.0140340
    860.4740000              0.0690970
    242.1450000              0.2374520
     77.3349000              0.4830340
     26.2470000              0.3398560
SP   6   1.00
    491.7650000             -0.0022974              0.0039894
    116.9840000             -0.0307140              0.0303180
     37.4153000             -0.1125280              0.1298800
     13.7834000              0.0450160              0.3279510
      5.4521500              0.5893530              0.4535270
      2.2258800              0.4652060              0.2521540
SP   3   1.00
      3.1864900             -0.2518300             -0.0142990
      1.1442700              0.0615890              0.3235720
      0.4203770              1.0601800              0.7435070
SP   1   1.00
      0.1426570              1.0000000              1.0000000
D    1   1.00
      1.5000000              1.0000000
D    1   1.00
      0.3750000              1.0000000
F    1   1.00
      0.7000000              1.0000000
****
}

set {
reference uhf
freeze_core true
e_convergence 10
d_convergence 10
dft_spherical_points 1202
dft_radial_points 99
}

e = energy('b3lyp')

print_out('Grab this energy {0}'.format(e))
--------------------------------------------------------------------------

    Molecular point group: c1

    Geometry (in Bohr), charge = 0, multiplicity = 2:

       Center              X                  Y                   Z               Mass
    ------------   -----------------  -----------------  -----------------  -----------------
         C           -0.323340922340     0.001959002720     0.001960179632    12.000000000000
         C            0.062227938660    -1.401804931480    -2.428560386368    12.000000000000
         C            0.060224055560     2.800038731620     0.000785128032    12.000000000000
         C            0.060848105160    -1.399633813080     2.426370327932    12.000000000000
         H            2.090446915060    -1.645069819280    -2.846319294268     1.007825032230
         H           -0.761870712740    -0.390414862480    -4.030722717368     1.007825032230
         H           -0.765229522440    -3.292563057080    -2.352724814568     1.007825032230
         H            2.084222179560     3.288453758920    -0.003816598968     1.007825032230
         H           -0.762700147840     3.679800380920     1.679610073432     1.007825032230
         H           -0.771416019440     3.674010467020    -1.673855525668     1.007825032230
         H            2.085986549360    -1.648671955980     2.844945620132     1.007825032230
         H           -0.772027447440    -3.286076098080     2.346427743932     1.007825032230
         H           -0.759969706640    -0.386124609480     4.029844255932     1.007825032230

  Charge       = 0
  Multiplicity = 2
  Basis Set: ANONYMOUS81EC0FA0
    Blend: 6-31G_2DFP_
  Basis Set: (ANONYMOUS81EC0FA0 AUX)
    Blend: DEF2-UNIVERSAL-JKFIT

    Orbital Energies [Eh]
    ---------------------

    Alpha Occupied:

       1A    -10.180341     2A    -10.167311     3A    -10.166936
       4A    -10.166796     5A     -0.797769     6A     -0.686389
       7A     -0.685984     8A     -0.530776     9A     -0.441126
      10A     -0.434773    11A     -0.434571    12A     -0.382664
      13A     -0.382534    14A     -0.363610    15A     -0.338208
      16A     -0.337787    17A     -0.168960

    Alpha Virtual:

      18A      0.076073    19A      0.134067    20A      0.134246
      21A      0.142610    22A      0.142643    23A      0.154879
      24A      0.178772    25A      0.178780    26A      0.203547
      27A      0.214801    28A      0.275510    29A      0.276461
      30A      0.399199    31A      0.399235    32A      0.403368
      33A      0.424051    34A      0.424147    35A      0.456595
      36A      0.495317    37A      0.495461    38A      0.512160
      39A      0.513978    40A      0.578550    41A      0.579071
      42A      0.591315    43A      0.591961    44A      0.602576
      45A      0.624761    46A      0.631766    47A      0.636124
      48A      0.636386    49A      0.663124    50A      0.663702
      51A      0.683825    52A      0.683880    53A      0.734995
      54A      0.825363    55A      0.825451    56A      0.853916
      57A      0.914836    58A      0.915220    59A      0.944120
      60A      0.944614    61A      0.961230    62A      0.961359
      63A      1.003456    64A      1.128029    65A      1.128148
      66A      1.142196    67A      1.163119    68A      1.163475
      69A      1.223328    70A      1.274230    71A      1.274744
      72A      1.279367    73A      1.324182    74A      1.324531
      75A      1.356000    76A      1.365634    77A      1.366456
      78A      1.392436    79A      1.403599    80A      1.404504
      81A      1.416731    82A      1.417496    83A      1.427926
      84A      1.491492    85A      1.499086    86A      1.542631
      87A      1.543028    88A      1.574127    89A      1.574762
      90A      1.669836    91A      1.739046    92A      1.739793
      93A      1.768311    94A      1.830810    95A      1.831972
      96A      1.971730    97A      2.018104    98A      2.019062
      99A      2.019198   100A      2.051290   101A      2.054026
     102A      2.738402   103A      2.738558   104A      2.790933
     105A      2.811416   106A      2.889273   107A      2.890533
     108A      2.895045   109A      2.929251   110A      2.929749
     111A      2.958991   112A      2.964001   113A      2.964754
     114A      3.034008   115A      3.070864   116A      3.071706
     117A      3.084345   118A      3.168665   119A      3.168849
     120A      3.180641   121A      3.285254   122A      3.285376
     123A      3.326528   124A      3.327789   125A      3.375619
     126A      3.489821   127A      3.490498   128A      3.513991
     129A      3.525301   130A      3.567219   131A      3.569587
     132A      3.575150   133A      3.666081   134A      3.666617
     135A      3.679697   136A      3.693631   137A      3.694619
     138A      3.774886   139A      3.778629   140A      3.789228
     141A      3.911544   142A      3.912923   143A      4.034446
     144A      4.109921   145A      4.112812   146A      4.147345
     147A      4.148895   148A      4.173248   149A      4.202044
     150A      4.202990   151A      4.203737   152A      4.210903
     153A      4.315249   154A      4.316671   155A      4.358982
     156A      4.423734   157A      4.425163   158A      4.443446
     159A      4.515752   160A      4.517913   161A      4.577274
     162A      4.579223   163A      4.617526   164A      4.709449
     165A      4.773730   166A      4.775542   167A      4.836925
     168A      4.962834   169A      5.002090   170A      5.003843
     171A      5.228015   172A      5.246638   173A      5.246996
     174A      5.354180   175A      5.356852   176A      5.479352

    Beta Occupied:

       1A    -10.168067     2A    -10.167696     3A    -10.167560
       4A    -10.166518     5A     -0.781094     6A     -0.684175
       7A     -0.683802     8A     -0.511747     9A     -0.431154
      10A     -0.430931    11A     -0.421823    12A     -0.376733
      13A     -0.376636    14A     -0.362594    15A     -0.333331
      16A     -0.332910

    Beta Virtual:

      17A     -0.025742    18A      0.077082    19A      0.134951
      20A      0.135141    21A      0.144466    22A      0.144528
      23A      0.163337    24A      0.182442    25A      0.182455
      26A      0.215031    27A      0.218929    28A      0.281872
      29A      0.282794    30A      0.400391    31A      0.400399
      32A      0.419795    33A      0.426844    34A      0.426977
      35A      0.468504    36A      0.497588    37A      0.497711
      38A      0.513895    39A      0.556321    40A      0.584086
      41A      0.584639    42A      0.597523    43A      0.598110
      44A      0.609998    45A      0.628138    46A      0.631926
      47A      0.639380    48A      0.639700    49A      0.666704
      50A      0.667249    51A      0.686477    52A      0.686500
      53A      0.757517    54A      0.830571    55A      0.830580
      56A      0.855270    57A      0.922801    58A      0.923196
      59A      0.945957    60A      0.953541    61A      0.966496
      62A      0.966707    63A      1.008695    64A      1.131984
      65A      1.132253    66A      1.155564    67A      1.168282
      68A      1.168463    69A      1.232301    70A      1.279814
      71A      1.280348    72A      1.285128    73A      1.329191
      74A      1.329503    75A      1.365416    76A      1.370932
      77A      1.371644    78A      1.393494    79A      1.407026
      80A      1.408005    81A      1.421793    82A      1.422531
      83A      1.428200    84A      1.492541    85A      1.509530
      86A      1.547083    87A      1.547391    88A      1.582062
      89A      1.582572    90A      1.674683    91A      1.744788
      92A      1.745574    93A      1.779091    94A      1.834656
      95A      1.835837    96A      1.972589    97A      2.025314
      98A      2.025544    99A      2.039674   100A      2.058061
     101A      2.060697   102A      2.746702   103A      2.746931
     104A      2.811830   105A      2.816066   106A      2.902114
     107A      2.903153   108A      2.924627   109A      2.931740
     110A      2.932261   111A      2.960054   112A      2.968568
     113A      2.969279   114A      3.041942   115A      3.080834
     116A      3.081555   117A      3.086163   118A      3.184216
     119A      3.184693   120A      3.188429   121A      3.290048
     122A      3.290178   123A      3.330342   124A      3.331583
     125A      3.383439   126A      3.492522   127A      3.493258
     128A      3.512364   129A      3.528351   130A      3.574982
     131A      3.580602   132A      3.582896   133A      3.671016
     134A      3.671219   135A      3.692956   136A      3.725477
     137A      3.726031   138A      3.779480   139A      3.783144
     140A      3.817714   141A      3.921427   142A      3.922678
     143A      4.045334   144A      4.116741   145A      4.119624
     146A      4.154649   147A      4.156011   148A      4.187305
     149A      4.208250   150A      4.209587   151A      4.210769
     152A      4.215386   153A      4.322645   154A      4.324154
     155A      4.362345   156A      4.431970   157A      4.433347
     158A      4.446342   159A      4.523557   160A      4.525686
     161A      4.587864   162A      4.589829   163A      4.624727
     164A      4.719794   165A      4.780741   166A      4.782440
     167A      4.839843   168A      4.967628   169A      5.006104
     170A      5.007908   171A      5.233729   172A      5.248405
     173A      5.248797   174A      5.360632   175A      5.363362
     176A      5.481674

    Final Occupation by Irrep:
              A
    DOCC [    16 ]
    SOCC [     1 ]

  @DF-UKS Final Energy:  -157.81306423307521

   => Energetics <=

    Nuclear Repulsion Energy =            125.3946617378582573
    One-Electron Energy =                -458.7489766415866939
    Two-Electron Energy =                 195.8483964595157545
    DFT Exchange-Correlation Energy =     -20.3071457888625275
    Empirical Dispersion Energy =           0.0000000000000000
    VV10 Nonlocal Energy =                  0.0000000000000000
    Total Energy =                       -157.8130642330752096

  UHF NO Occupations:
  HONO-2 :   15  A 1.9996009
  HONO-1 :   16  A 1.9989805
  HONO-0 :   17  A 1.0000000
  LUNO+0 :   18  A 0.0010195
  LUNO+1 :   19  A 0.0003991
  LUNO+2 :   20  A 0.0001984
  LUNO+3 :   21  A 0.0001967

Computation Completed

Properties will be evaluated at   0.000000,   0.000000,   0.000000 [a0]

Properties computed using the SCF density matrix

  Nuclear Dipole Moment: [e a0]
     X:     0.8272      Y:    -0.0033      Z:    -0.0033

  Electronic Dipole Moment: [e a0]
     X:    -0.7493      Y:     0.0033      Z:     0.0032

  Dipole Moment: [e a0]
     X:     0.0779      Y:    -0.0000      Z:    -0.0000     Total:     0.0779

  Dipole Moment: [D]
     X:     0.1980      Y:    -0.0001      Z:    -0.0001     Total:     0.1980

*** tstop() called on n032 at Fri Nov  5 15:46:00 2021
Module time:
	user time   =     632.44 seconds =      10.54 minutes
	system time =      12.17 seconds =       0.20 minutes
	total time  =        162 seconds =       2.70 minutes
Total time:
	user time   =     632.44 seconds =      10.54 minutes
	system time =      12.17 seconds =       0.20 minutes
	total time  =        162 seconds =       2.70 minutes
Grab this energy -157.8130642330752
    Psi4 stopped on: Friday, 05 November 2021 03:46PM
    Psi4 wall time for execution: 0:02:42.06

*** Psi4 exiting successfully. Buy a developer a beer!
