                               Psi4 1.4a2.dev629

  ==> Input File <==

--------------------------------------------------------------------------
import os
memory 14 GB

molecule {
 C   -0.3265092659   -0.0000025602   -0.0004964363
 C    0.0586223312   -1.4008436067   -2.4267045745
 C    0.0596950720    2.8019383299   -0.0003839038
 C    0.0610057006   -1.4010920806    2.4263671258
 H    2.0908418194   -1.6439372316   -2.8473412625
 H   -0.7654361670   -0.3901316508   -4.0238764403
 H   -0.7667972417   -3.2901493171   -2.3500917020
 H    2.0871318836    3.2883644005   -0.0001813682
 H   -0.7658203437    3.6804737559    1.6772040524
 H   -0.7634242467    3.6795425984   -1.6765987345
 H    2.0836984737   -1.6445187654    2.8479871308
 H   -0.7622909963   -3.2942995986    2.3470550358
 H   -0.7633248961   -0.3853685871    4.0270610773
units bohr
0 2
}

basis {

assign 6-31g_2dfp_

[ 6-31g_2dfp_ ]

spherical

!----------------------------------------------------------------------
! Basis Set Exchange
! Version v0.8.13
! https://www.basissetexchange.org
!----------------------------------------------------------------------
!   Basis set: 6-31G(2df,p)
! Description: 6-31G(2df,p)
!        Role: orbital
!     Version: 0  (Data from the original Basis Set Exchange)
!----------------------------------------------------------------------

****
H     0
S    3   1.00
     18.7311370              0.03349460
      2.8253937              0.23472695
      0.6401217              0.81375733
S    1   1.00
      0.1612778              1.00000000
P    1   1.00
      1.5000000              1.0000000
P    1   1.00
      0.3750000              1.0000000
****
B     0
S    6   1.00
   2068.8823000              0.0018663
    310.6495700              0.0142515
     70.6830330              0.0695516
     19.8610800              0.2325729
      6.2993048              0.4670787
      2.1270270              0.3634314
SP   3   1.00
      4.7279710             -0.1303938              0.0745976
      1.1903377             -0.1307889              0.3078467
      0.3594117              1.1309444              0.7434568
SP   1   1.00
      0.1267512              1.0000000              1.0000000
D    1   1.00
      0.8020000              1.0000000
D    1   1.00
      0.2005000              1.0000000
F    1   1.00
      0.5000000              1.0000000
****
C     0
S    6   1.00
   3047.5249000              0.0018347
    457.3695100              0.0140373
    103.9486900              0.0688426
     29.2101550              0.2321844
      9.2866630              0.4679413
      3.1639270              0.3623120
SP   3   1.00
      7.8682724             -0.1193324              0.0689991
      1.8812885             -0.1608542              0.3164240
      0.5442493              1.1434564              0.7443083
SP   1   1.00
      0.1687144              1.0000000              1.0000000
D    1   1.00
      1.2520000              1.0000000
D    1   1.00
      0.3130000              1.0000000
F    1   1.00
      0.8000000              1.0000000
****
N     0
S    6   1.00
   4173.5110000              0.0018348
    627.4579000              0.0139950
    142.9021000              0.0685870
     40.2343300              0.2322410
     12.8202100              0.4690700
      4.3904370              0.3604550
SP   3   1.00
     11.6263580             -0.1149610              0.0675800
      2.7162800             -0.1691180              0.3239070
      0.7722180              1.1458520              0.7408950
SP   1   1.00
      0.2120313              1.0000000              1.0000000
D    1   1.00
      1.8260000              1.0000000
D    1   1.00
      0.4565000              1.0000000
F    1   1.00
      1.0000000              1.0000000
****
O     0
S    6   1.00
   5484.6717000              0.0018311
    825.2349500              0.0139501
    188.0469600              0.0684451
     52.9645000              0.2327143
     16.8975700              0.4701930
      5.7996353              0.3585209
SP   3   1.00
     15.5396160             -0.1107775              0.0708743
      3.5999336             -0.1480263              0.3397528
      1.0137618              1.1307670              0.7271586
SP   1   1.00
      0.2700058              1.0000000              1.0000000
D    1   1.00
      2.5840000              1.0000000
D    1   1.00
      0.6460000              1.0000000
F    1   1.00
      1.4000000              1.0000000
****
F     0
S    6   1.00
   7001.7130900              0.0018196169
   1051.3660900              0.0139160796
    239.2856900              0.0684053245
     67.3974453              0.233185760
     21.5199573              0.471267439
      7.40310130             0.356618546
SP   3   1.00
     20.8479528             -0.108506975            0.0716287243
      4.80830834            -0.146451658            0.3459121030
      1.34406986             1.128688580            0.7224699570
SP   1   1.00
      0.358151393            1.0000000              1.0000000
D    1   1.00
      3.5000000              1.0000000
D    1   1.00
      0.8750000              1.0000000
F    1   1.00
      1.8500000              1.0000000
****
Al     0
S    6   1.00
  13983.1000000              0.00194267
   2098.7500000              0.0148599
    477.7050000              0.0728494
    134.3600000              0.2468300
     42.8709000              0.4872580
     14.5189000              0.3234960
SP   6   1.00
    239.6680000             -0.00292619             0.00460285
     57.4419000             -0.0374080              0.0331990
     18.2859000             -0.1144870              0.1362820
      6.5991400              0.1156350              0.3304760
      2.4904900              0.6125950              0.4491460
      0.9445400              0.3937990              0.2657040
SP   3   1.00
      1.2779000             -0.2276060             -0.0175130
      0.3975900              0.00144583             0.2445330
      0.1600950              1.0927900              0.8049340
SP   1   1.00
      0.0556577              1.0000000              1.0000000
D    1   1.00
      0.6500000              1.0000000
D    1   1.00
      0.1625000              1.0000000
F    1   1.00
      0.2500000              1.0000000
****
Si     0
S    6   1.00
  16115.9000000              0.00195948
   2425.5800000              0.01492880
    553.8670000              0.07284780
    156.3400000              0.24613000
     50.0683000              0.48591400
     17.0178000              0.32500200
SP   6   1.00
    292.7180000             -0.00278094             0.00443826
     69.8731000             -0.03571460             0.03266790
     22.3363000             -0.11498500             0.13472100
      8.1503900              0.09356340             0.32867800
      3.1345800              0.60301700             0.44964000
      1.2254300              0.41895900             0.26137200
SP   3   1.00
      1.7273800             -0.24463000            -0.01779510
      0.5729220              0.00431572             0.25353900
      0.2221920              1.09818000             0.80066900
SP   1   1.00
      0.0778369              1.00000000             1.00000000
D    1   1.00
      0.9000000              1.0000000
D    1   1.00
      0.2250000              1.0000000
F    1   1.00
      0.3200000              1.0000000
****
P     0
S    6   1.00
  19413.3000000              0.0018516
   2909.4200000              0.0142062
    661.3640000              0.0699995
    185.7590000              0.2400790
     59.1943000              0.4847620
     20.0310000              0.3352000
SP   6   1.00
    339.4780000             -0.00278217             0.00456462
     81.0101000             -0.0360499              0.03369360
     25.8780000             -0.1166310              0.13975500
      9.4522100              0.0968328              0.33936200
      3.6656600              0.6144180              0.45092100
      1.4674600              0.4037980              0.23858600
SP   3   1.00
      2.1562300             -0.2529230             -0.01776530
      0.7489970              0.0328517              0.27405800
      0.2831450              1.0812500              0.78542100
SP   1   1.00
      0.0998317              1.0000000              1.00000000
D    1   1.00
      1.1000000              1.0000000
D    1   1.00
      0.2750000              1.0000000
F    1   1.00
      0.4500000              1.0000000
****
S     0
S    6   1.00
  21917.1000000              0.0018690
   3301.4900000              0.0142300
    754.1460000              0.0696960
    212.7110000              0.2384870
     67.9896000              0.4833070
     23.0515000              0.3380740
SP   6   1.00
    423.7350000             -0.0023767              0.0040610
    100.7100000             -0.0316930              0.0306810
     32.1599000             -0.1133170              0.1304520
     11.8079000              0.0560900              0.3272050
      4.6311000              0.5922550              0.4528510
      1.8702500              0.4550060              0.2560420
SP   3   1.00
      2.6158400             -0.2503740             -0.0145110
      0.9221670              0.0669570              0.3102630
      0.3412870              1.0545100              0.7544830
SP   1   1.00
      0.1171670              1.0000000              1.0000000
D    1   1.00
      1.3000000              1.0000000
D    1   1.00
      0.3250000              1.0000000
F    1   1.00
      0.5500000              1.0000000
****
Cl     0
S    6   1.00
  25180.1000000              0.0018330
   3780.3500000              0.0140340
    860.4740000              0.0690970
    242.1450000              0.2374520
     77.3349000              0.4830340
     26.2470000              0.3398560
SP   6   1.00
    491.7650000             -0.0022974              0.0039894
    116.9840000             -0.0307140              0.0303180
     37.4153000             -0.1125280              0.1298800
     13.7834000              0.0450160              0.3279510
      5.4521500              0.5893530              0.4535270
      2.2258800              0.4652060              0.2521540
SP   3   1.00
      3.1864900             -0.2518300             -0.0142990
      1.1442700              0.0615890              0.3235720
      0.4203770              1.0601800              0.7435070
SP   1   1.00
      0.1426570              1.0000000              1.0000000
D    1   1.00
      1.5000000              1.0000000
D    1   1.00
      0.3750000              1.0000000
F    1   1.00
      0.7000000              1.0000000
****
}

set {
reference uhf
freeze_core true
e_convergence 10
d_convergence 10
dft_spherical_points 1202
dft_radial_points 99
}

e = energy('b3lyp')

print_out('Grab this energy {0}'.format(e))
--------------------------------------------------------------------------

    Molecular point group: c1

    Geometry (in Bohr), charge = 0, multiplicity = 2:

       Center              X                  Y                   Z               Mass
    ------------   -----------------  -----------------  -----------------  -----------------
         C           -0.325132860686    -0.000002146713    -0.000261881406    12.000000000000
         C            0.059998736414    -1.400843193213    -2.426470019606    12.000000000000
         C            0.061071477214     2.801938743387    -0.000149348906    12.000000000000
         C            0.062382105814    -1.401091667113     2.426601680694    12.000000000000
         H            2.092218224614    -1.643936818113    -2.847106707606     1.007825032230
         H           -0.764059761786    -0.390131237313    -4.023641885406     1.007825032230
         H           -0.765420836486    -3.290148903613    -2.349857147106     1.007825032230
         H            2.088508288814     3.288364813987     0.000053186694     1.007825032230
         H           -0.764443938486     3.680474169387     1.677438607294     1.007825032230
         H           -0.762047841486     3.679543011887    -1.676364179606     1.007825032230
         H            2.085074878914    -1.644518351913     2.848221685694     1.007825032230
         H           -0.760914591086    -3.294299185113     2.347289590694     1.007825032230
         H           -0.761948490886    -0.385368173613     4.027295632194     1.007825032230

  Charge       = 0
  Multiplicity = 2
  Basis Set: ANONYMOUS8B680D4A
    Blend: 6-31G_2DFP_
  Basis Set: (ANONYMOUS8B680D4A AUX)
    Blend: DEF2-UNIVERSAL-JKFIT

    Orbital Energies [Eh]
    ---------------------

    Alpha Occupied:

       1A    -10.180455     2A    -10.167069     3A    -10.167045
       4A    -10.167001     5A     -0.797712     6A     -0.686176
       7A     -0.686175     8A     -0.530799     9A     -0.440891
      10A     -0.434837    11A     -0.434794    12A     -0.382375
      13A     -0.382326    14A     -0.363893    15A     -0.338081
      16A     -0.338015    17A     -0.169077

    Alpha Virtual:

      18A      0.076088    19A      0.133993    20A      0.134326
      21A      0.142645    22A      0.142773    23A      0.154815
      24A      0.178593    25A      0.178758    26A      0.203502
      27A      0.214935    28A      0.275771    29A      0.275923
      30A      0.399177    31A      0.399245    32A      0.403302
      33A      0.424006    34A      0.424176    35A      0.456588
      36A      0.495295    37A      0.495585    38A      0.512057
      39A      0.513985    40A      0.578729    41A      0.579083
      42A      0.591179    43A      0.591471    44A      0.602271
      45A      0.624905    46A      0.631898    47A      0.636281
      48A      0.636492    49A      0.662876    50A      0.663616
      51A      0.683703    52A      0.684053    53A      0.734866
      54A      0.825210    55A      0.825246    56A      0.853969
      57A      0.914647    58A      0.915073    59A      0.944023
      60A      0.944591    61A      0.961258    62A      0.961516
      63A      1.004333    64A      1.128290    65A      1.128371
      66A      1.141841    67A      1.163002    68A      1.163268
      69A      1.222904    70A      1.274048    71A      1.274345
      72A      1.279218    73A      1.324428    74A      1.324509
      75A      1.354932    76A      1.366370    77A      1.366424
      78A      1.392529    79A      1.402979    80A      1.403884
      81A      1.415995    82A      1.417030    83A      1.427730
      84A      1.491956    85A      1.498575    86A      1.542759
      87A      1.543681    88A      1.574386    89A      1.574700
      90A      1.670353    91A      1.739035    92A      1.739340
      93A      1.768142    94A      1.830921    95A      1.832526
      96A      1.972271    97A      2.017803    98A      2.018450
      99A      2.019262   100A      2.051343   101A      2.053219
     102A      2.737745   103A      2.738565   104A      2.790707
     105A      2.811699   106A      2.889749   107A      2.889778
     108A      2.895003   109A      2.929638   110A      2.929659
     111A      2.959164   112A      2.964017   113A      2.964669
     114A      3.033977   115A      3.070641   116A      3.070680
     117A      3.084428   118A      3.168544   119A      3.168984
     120A      3.180792   121A      3.285341   122A      3.285990
     123A      3.327884   124A      3.328302   125A      3.375327
     126A      3.489818   127A      3.490134   128A      3.513556
     129A      3.525486   130A      3.567853   131A      3.568080
     132A      3.574707   133A      3.665660   134A      3.667103
     135A      3.680675   136A      3.693683   137A      3.694001
     138A      3.775911   139A      3.775942   140A      3.787807
     141A      3.912226   142A      3.912435   143A      4.033267
     144A      4.111284   145A      4.112191   146A      4.147747
     147A      4.148901   148A      4.173089   149A      4.201500
     150A      4.202482   151A      4.203755   152A      4.210812
     153A      4.314917   154A      4.316649   155A      4.359074
     156A      4.423519   157A      4.424143   158A      4.444317
     159A      4.516299   160A      4.517676   161A      4.578245
     162A      4.578481   163A      4.616684   164A      4.709040
     165A      4.773899   166A      4.774800   167A      4.836664
     168A      4.962929   169A      5.001487   170A      5.002989
     171A      5.227943   172A      5.244741   173A      5.248890
     174A      5.354784   175A      5.357191   176A      5.478861

    Beta Occupied:

       1A    -10.167824     2A    -10.167799     3A    -10.167769
       4A    -10.166634     5A     -0.781053     6A     -0.683987
       7A     -0.683977     8A     -0.511775     9A     -0.431216
      10A     -0.431185    11A     -0.421577    12A     -0.376470
      13A     -0.376377    14A     -0.362878    15A     -0.333194
      16A     -0.333142

    Beta Virtual:

      17A     -0.025892    18A      0.077099    19A      0.134927
      20A      0.135239    21A      0.144532    22A      0.144608
      23A      0.163304    24A      0.182234    25A      0.182438
      26A      0.215160    27A      0.218862    28A      0.282128
      29A      0.282286    30A      0.400352    31A      0.400416
      32A      0.419808    33A      0.426814    34A      0.426984
      35A      0.468433    36A      0.497549    37A      0.497854
      38A      0.513797    39A      0.556282    40A      0.584285
      41A      0.584608    42A      0.597353    43A      0.597692
      44A      0.609717    45A      0.628248    46A      0.632062
      47A      0.639545    48A      0.639757    49A      0.666500
      50A      0.667177    51A      0.686353    52A      0.686668
      53A      0.757396    54A      0.830396    55A      0.830437
      56A      0.855325    57A      0.922636    58A      0.923035
      59A      0.945859    60A      0.953486    61A      0.966518
      62A      0.966832    63A      1.009621    64A      1.132234
      65A      1.132273    66A      1.155229    67A      1.168103
      68A      1.168438    69A      1.231870    70A      1.279649
      71A      1.279970    72A      1.284966    73A      1.329478
      74A      1.329555    75A      1.364326    76A      1.371622
      77A      1.371668    78A      1.393598    79A      1.406382
      80A      1.407378    81A      1.421012    82A      1.422084
      83A      1.427981    84A      1.493007    85A      1.508997
      86A      1.547287    87A      1.548184    88A      1.582166
      89A      1.582457    90A      1.675185    91A      1.744809
      92A      1.745113    93A      1.778921    94A      1.834763
      95A      1.836382    96A      1.973130    97A      2.024626
      98A      2.025585    99A      2.039425   100A      2.058127
     101A      2.059916   102A      2.746092   103A      2.746894
     104A      2.812110   105A      2.815791   106A      2.902417
     107A      2.902535   108A      2.924603   109A      2.932062
     110A      2.932143   111A      2.960227   112A      2.968566
     113A      2.969244   114A      3.041950   115A      3.080474
     116A      3.080699   117A      3.086267   118A      3.184107
     119A      3.184761   120A      3.188544   121A      3.290086
     122A      3.290755   123A      3.331680   124A      3.332146
     125A      3.383105   126A      3.492595   127A      3.492835
     128A      3.511923   129A      3.528496   130A      3.574536
     131A      3.581228   132A      3.581542   133A      3.670294
     134A      3.671829   135A      3.693953   136A      3.725328
     137A      3.725665   138A      3.780439   139A      3.780550
     140A      3.816375   141A      3.922022   142A      3.922276
     143A      4.044166   144A      4.118096   145A      4.118961
     146A      4.155028   147A      4.156076   148A      4.187170
     149A      4.207725   150A      4.209228   151A      4.210619
     152A      4.215320   153A      4.322344   154A      4.324076
     155A      4.362449   156A      4.431791   157A      4.432418
     158A      4.447168   159A      4.524090   160A      4.525473
     161A      4.588810   162A      4.589071   163A      4.623805
     164A      4.719474   165A      4.780828   166A      4.781731
     167A      4.839578   168A      4.967741   169A      5.005558
     170A      5.007022   171A      5.233626   172A      5.246528
     173A      5.250654   174A      5.361237   175A      5.363664
     176A      5.481181

    Final Occupation by Irrep:
              A
    DOCC [    16 ]
    SOCC [     1 ]

  @DF-UKS Final Energy:  -157.81305610156178

   => Energetics <=

    Nuclear Repulsion Energy =            125.3858979074222475
    One-Electron Energy =                -458.7313330520109957
    Two-Electron Energy =                 195.8392693841224741
    DFT Exchange-Correlation Energy =     -20.3068903410955173
    Empirical Dispersion Energy =           0.0000000000000000
    VV10 Nonlocal Energy =                  0.0000000000000000
    Total Energy =                       -157.8130561015617843

  UHF NO Occupations:
  HONO-2 :   15  A 1.9995999
  HONO-1 :   16  A 1.9989813
  HONO-0 :   17  A 1.0000000
  LUNO+0 :   18  A 0.0010187
  LUNO+1 :   19  A 0.0004001
  LUNO+2 :   20  A 0.0001976
  LUNO+3 :   21  A 0.0001976

Computation Completed

Properties will be evaluated at   0.000000,   0.000000,   0.000000 [a0]

Properties computed using the SCF density matrix

  Nuclear Dipole Moment: [e a0]
     X:     0.8369      Y:    -0.0000      Z:     0.0017

  Electronic Dipole Moment: [e a0]
     X:    -0.7591      Y:     0.0000      Z:    -0.0023

  Dipole Moment: [e a0]
     X:     0.0778      Y:     0.0000      Z:    -0.0006     Total:     0.0778

  Dipole Moment: [D]
     X:     0.1977      Y:     0.0000      Z:    -0.0016     Total:     0.1977

*** tstop() called on n082 at Fri Nov  5 13:31:31 2021
Module time:
	user time   =     469.56 seconds =       7.83 minutes
	system time =       4.34 seconds =       0.07 minutes
	total time  =        119 seconds =       1.98 minutes
Total time:
	user time   =     469.56 seconds =       7.83 minutes
	system time =       4.34 seconds =       0.07 minutes
	total time  =        119 seconds =       1.98 minutes
Grab this energy -157.81305610156178
    Psi4 stopped on: Friday, 05 November 2021 01:31PM
    Psi4 wall time for execution: 0:01:59.19

*** Psi4 exiting successfully. Buy a developer a beer!
