                               Psi4 1.4a2.dev629

  ==> Input File <==

--------------------------------------------------------------------------
import os
memory 14 GB

molecule {
 C   -0.3201732845   -0.0000019787    0.0000000179
 C    0.0624656581   -1.4021728522   -2.4254241455
 C    0.0623457762    2.8015786306   -0.0016000556
 C    0.0624654538   -1.3994014038    2.4270240301
 H    2.0866052459   -1.6434273208   -2.8475181318
 H   -0.7662346823   -0.3883951711   -4.0255841681
 H   -0.7667885826   -3.2915411884   -2.3496043804
 H    2.0864663156    3.2878346365    0.0006192590
 H   -0.7664755683    3.6804297284    1.6764009138
 H   -0.7668663477    3.6805587115   -1.6757948301
 H    2.0866052119   -1.6444999340    2.8468989239
 H   -0.7663977174   -3.2920016344    2.3491896539
 H   -0.7666253554   -0.3889845369    4.0253929129
units bohr
0 2
}

basis {

assign 6-31g_2dfp_

[ 6-31g_2dfp_ ]

spherical

!----------------------------------------------------------------------
! Basis Set Exchange
! Version v0.8.13
! https://www.basissetexchange.org
!----------------------------------------------------------------------
!   Basis set: 6-31G(2df,p)
! Description: 6-31G(2df,p)
!        Role: orbital
!     Version: 0  (Data from the original Basis Set Exchange)
!----------------------------------------------------------------------

****
H     0
S    3   1.00
     18.7311370              0.03349460
      2.8253937              0.23472695
      0.6401217              0.81375733
S    1   1.00
      0.1612778              1.00000000
P    1   1.00
      1.5000000              1.0000000
P    1   1.00
      0.3750000              1.0000000
****
B     0
S    6   1.00
   2068.8823000              0.0018663
    310.6495700              0.0142515
     70.6830330              0.0695516
     19.8610800              0.2325729
      6.2993048              0.4670787
      2.1270270              0.3634314
SP   3   1.00
      4.7279710             -0.1303938              0.0745976
      1.1903377             -0.1307889              0.3078467
      0.3594117              1.1309444              0.7434568
SP   1   1.00
      0.1267512              1.0000000              1.0000000
D    1   1.00
      0.8020000              1.0000000
D    1   1.00
      0.2005000              1.0000000
F    1   1.00
      0.5000000              1.0000000
****
C     0
S    6   1.00
   3047.5249000              0.0018347
    457.3695100              0.0140373
    103.9486900              0.0688426
     29.2101550              0.2321844
      9.2866630              0.4679413
      3.1639270              0.3623120
SP   3   1.00
      7.8682724             -0.1193324              0.0689991
      1.8812885             -0.1608542              0.3164240
      0.5442493              1.1434564              0.7443083
SP   1   1.00
      0.1687144              1.0000000              1.0000000
D    1   1.00
      1.2520000              1.0000000
D    1   1.00
      0.3130000              1.0000000
F    1   1.00
      0.8000000              1.0000000
****
N     0
S    6   1.00
   4173.5110000              0.0018348
    627.4579000              0.0139950
    142.9021000              0.0685870
     40.2343300              0.2322410
     12.8202100              0.4690700
      4.3904370              0.3604550
SP   3   1.00
     11.6263580             -0.1149610              0.0675800
      2.7162800             -0.1691180              0.3239070
      0.7722180              1.1458520              0.7408950
SP   1   1.00
      0.2120313              1.0000000              1.0000000
D    1   1.00
      1.8260000              1.0000000
D    1   1.00
      0.4565000              1.0000000
F    1   1.00
      1.0000000              1.0000000
****
O     0
S    6   1.00
   5484.6717000              0.0018311
    825.2349500              0.0139501
    188.0469600              0.0684451
     52.9645000              0.2327143
     16.8975700              0.4701930
      5.7996353              0.3585209
SP   3   1.00
     15.5396160             -0.1107775              0.0708743
      3.5999336             -0.1480263              0.3397528
      1.0137618              1.1307670              0.7271586
SP   1   1.00
      0.2700058              1.0000000              1.0000000
D    1   1.00
      2.5840000              1.0000000
D    1   1.00
      0.6460000              1.0000000
F    1   1.00
      1.4000000              1.0000000
****
F     0
S    6   1.00
   7001.7130900              0.0018196169
   1051.3660900              0.0139160796
    239.2856900              0.0684053245
     67.3974453              0.233185760
     21.5199573              0.471267439
      7.40310130             0.356618546
SP   3   1.00
     20.8479528             -0.108506975            0.0716287243
      4.80830834            -0.146451658            0.3459121030
      1.34406986             1.128688580            0.7224699570
SP   1   1.00
      0.358151393            1.0000000              1.0000000
D    1   1.00
      3.5000000              1.0000000
D    1   1.00
      0.8750000              1.0000000
F    1   1.00
      1.8500000              1.0000000
****
Al     0
S    6   1.00
  13983.1000000              0.00194267
   2098.7500000              0.0148599
    477.7050000              0.0728494
    134.3600000              0.2468300
     42.8709000              0.4872580
     14.5189000              0.3234960
SP   6   1.00
    239.6680000             -0.00292619             0.00460285
     57.4419000             -0.0374080              0.0331990
     18.2859000             -0.1144870              0.1362820
      6.5991400              0.1156350              0.3304760
      2.4904900              0.6125950              0.4491460
      0.9445400              0.3937990              0.2657040
SP   3   1.00
      1.2779000             -0.2276060             -0.0175130
      0.3975900              0.00144583             0.2445330
      0.1600950              1.0927900              0.8049340
SP   1   1.00
      0.0556577              1.0000000              1.0000000
D    1   1.00
      0.6500000              1.0000000
D    1   1.00
      0.1625000              1.0000000
F    1   1.00
      0.2500000              1.0000000
****
Si     0
S    6   1.00
  16115.9000000              0.00195948
   2425.5800000              0.01492880
    553.8670000              0.07284780
    156.3400000              0.24613000
     50.0683000              0.48591400
     17.0178000              0.32500200
SP   6   1.00
    292.7180000             -0.00278094             0.00443826
     69.8731000             -0.03571460             0.03266790
     22.3363000             -0.11498500             0.13472100
      8.1503900              0.09356340             0.32867800
      3.1345800              0.60301700             0.44964000
      1.2254300              0.41895900             0.26137200
SP   3   1.00
      1.7273800             -0.24463000            -0.01779510
      0.5729220              0.00431572             0.25353900
      0.2221920              1.09818000             0.80066900
SP   1   1.00
      0.0778369              1.00000000             1.00000000
D    1   1.00
      0.9000000              1.0000000
D    1   1.00
      0.2250000              1.0000000
F    1   1.00
      0.3200000              1.0000000
****
P     0
S    6   1.00
  19413.3000000              0.0018516
   2909.4200000              0.0142062
    661.3640000              0.0699995
    185.7590000              0.2400790
     59.1943000              0.4847620
     20.0310000              0.3352000
SP   6   1.00
    339.4780000             -0.00278217             0.00456462
     81.0101000             -0.0360499              0.03369360
     25.8780000             -0.1166310              0.13975500
      9.4522100              0.0968328              0.33936200
      3.6656600              0.6144180              0.45092100
      1.4674600              0.4037980              0.23858600
SP   3   1.00
      2.1562300             -0.2529230             -0.01776530
      0.7489970              0.0328517              0.27405800
      0.2831450              1.0812500              0.78542100
SP   1   1.00
      0.0998317              1.0000000              1.00000000
D    1   1.00
      1.1000000              1.0000000
D    1   1.00
      0.2750000              1.0000000
F    1   1.00
      0.4500000              1.0000000
****
S     0
S    6   1.00
  21917.1000000              0.0018690
   3301.4900000              0.0142300
    754.1460000              0.0696960
    212.7110000              0.2384870
     67.9896000              0.4833070
     23.0515000              0.3380740
SP   6   1.00
    423.7350000             -0.0023767              0.0040610
    100.7100000             -0.0316930              0.0306810
     32.1599000             -0.1133170              0.1304520
     11.8079000              0.0560900              0.3272050
      4.6311000              0.5922550              0.4528510
      1.8702500              0.4550060              0.2560420
SP   3   1.00
      2.6158400             -0.2503740             -0.0145110
      0.9221670              0.0669570              0.3102630
      0.3412870              1.0545100              0.7544830
SP   1   1.00
      0.1171670              1.0000000              1.0000000
D    1   1.00
      1.3000000              1.0000000
D    1   1.00
      0.3250000              1.0000000
F    1   1.00
      0.5500000              1.0000000
****
Cl     0
S    6   1.00
  25180.1000000              0.0018330
   3780.3500000              0.0140340
    860.4740000              0.0690970
    242.1450000              0.2374520
     77.3349000              0.4830340
     26.2470000              0.3398560
SP   6   1.00
    491.7650000             -0.0022974              0.0039894
    116.9840000             -0.0307140              0.0303180
     37.4153000             -0.1125280              0.1298800
     13.7834000              0.0450160              0.3279510
      5.4521500              0.5893530              0.4535270
      2.2258800              0.4652060              0.2521540
SP   3   1.00
      3.1864900             -0.2518300             -0.0142990
      1.1442700              0.0615890              0.3235720
      0.4203770              1.0601800              0.7435070
SP   1   1.00
      0.1426570              1.0000000              1.0000000
D    1   1.00
      1.5000000              1.0000000
D    1   1.00
      0.3750000              1.0000000
F    1   1.00
      0.7000000              1.0000000
****
}

set {
reference uhf
freeze_core true
e_convergence 10
d_convergence 10
dft_spherical_points 1202
dft_radial_points 99
}

e = energy('b3lyp')

print_out('Grab this energy {0}'.format(e))
--------------------------------------------------------------------------

    Molecular point group: c1

    Geometry (in Bohr), charge = 0, multiplicity = 2:

       Center              X                  Y                   Z               Mass
    ------------   -----------------  -----------------  -----------------  -----------------
         C           -0.321549191087    -0.000002010811     0.000000047388    12.000000000000
         C            0.061089751513    -1.402172884311    -2.425424116012    12.000000000000
         C            0.060969869613     2.801578598489    -0.001600026112    12.000000000000
         C            0.061089547213    -1.399401435911     2.427024059588    12.000000000000
         H            2.085229339313    -1.643427352911    -2.847518102312     1.007825032230
         H           -0.767610588887    -0.388395203211    -4.025584138612     1.007825032230
         H           -0.768164489187    -3.291541220511    -2.349604350912     1.007825032230
         H            2.085090409013     3.287834604389     0.000619288488     1.007825032230
         H           -0.767851474887     3.680429696289     1.676400943288     1.007825032230
         H           -0.768242254287     3.680558679389    -1.675794800612     1.007825032230
         H            2.085229305313    -1.644499966111     2.846898953388     1.007825032230
         H           -0.767773623987    -3.292001666511     2.349189683388     1.007825032230
         H           -0.768001261987    -0.388984569011     4.025392942388     1.007825032230

  Charge       = 0
  Multiplicity = 2
  Basis Set: ANONYMOUS1B8CEFFB
    Blend: 6-31G_2DFP_
  Basis Set: (ANONYMOUS1B8CEFFB AUX)
    Blend: DEF2-UNIVERSAL-JKFIT

    Orbital Energies [Eh]
    ---------------------

    Alpha Occupied:

       1A    -10.180229     2A    -10.167007     3A    -10.167006
       4A    -10.166961     5A     -0.797820     6A     -0.686199
       7A     -0.686199     8A     -0.530754     9A     -0.441359
      10A     -0.434526    11A     -0.434526    12A     -0.382848
      13A     -0.382846    14A     -0.363329    15A     -0.337949
      16A     -0.337949    17A     -0.168846

    Alpha Virtual:

      18A      0.076056    19A      0.134147    20A      0.134148
      21A      0.142547    22A      0.142548    23A      0.154943
      24A      0.178884    25A      0.178884    26A      0.203591
      27A      0.214672    28A      0.276123    29A      0.276125
      30A      0.399245    31A      0.399249    32A      0.403383
      33A      0.424103    34A      0.424103    35A      0.456597
      36A      0.495338    37A      0.495339    38A      0.512257
      39A      0.513983    40A      0.578723    41A      0.578731
      42A      0.591938    43A      0.591940    44A      0.602881
      45A      0.624609    46A      0.631648    47A      0.636113
      48A      0.636117    49A      0.663583    50A      0.663583
      51A      0.683829    52A      0.683830    53A      0.735122
      54A      0.825579    55A      0.825582    56A      0.853869
      57A      0.915189    58A      0.915195    59A      0.944228
      60A      0.944632    61A      0.961192    62A      0.961208
      63A      1.002573    64A      1.127864    65A      1.127877
      66A      1.142591    67A      1.163420    68A      1.163432
      69A      1.223740    70A      1.274773    71A      1.274777
      72A      1.279500    73A      1.324239    74A      1.324241
      75A      1.357017    76A      1.365708    77A      1.365713
      78A      1.392385    79A      1.404676    80A      1.404678
      81A      1.417710    82A      1.417716    83A      1.428088
      84A      1.490994    85A      1.499626    86A      1.542422
      87A      1.542424    88A      1.574378    89A      1.574380
      90A      1.669290    91A      1.739626    92A      1.739637
      93A      1.768534    94A      1.831070    95A      1.831070
      96A      1.971170    97A      2.018574    98A      2.019344
      99A      2.019348   100A      2.053015   101A      2.053015
     102A      2.738816   103A      2.738817   104A      2.791138
     105A      2.811157   106A      2.890124   107A      2.890130
     108A      2.894903   109A      2.929345   110A      2.929353
     111A      2.958833   112A      2.964401   113A      2.964415
     114A      3.034051   115A      3.071898   116A      3.071912
     117A      3.084287   118A      3.168799   119A      3.168807
     120A      3.180387   121A      3.284961   122A      3.284962
     123A      3.326232   124A      3.326238   125A      3.375915
     126A      3.490342   127A      3.490362   128A      3.514442
     129A      3.525196   130A      3.568800   131A      3.568820
     132A      3.575605   133A      3.666386   134A      3.666394
     135A      3.678623   136A      3.694408   137A      3.694424
     138A      3.777677   139A      3.777703   140A      3.790436
     141A      3.912116   142A      3.912122   143A      4.035629
     144A      4.110999   145A      4.111003   146A      4.147896
     147A      4.147904   148A      4.173373   149A      4.203039
     150A      4.203382   151A      4.203386   152A      4.210945
     153A      4.316151   154A      4.316171   155A      4.358856
     156A      4.425061   157A      4.425063   158A      4.442551
     159A      4.516718   160A      4.516719   161A      4.578176
     162A      4.578188   163A      4.618360   164A      4.709902
     165A      4.774838   166A      4.774846   167A      4.837138
     168A      4.962796   169A      5.003645   170A      5.003657
     171A      5.228126   172A      5.246797   173A      5.246797
     174A      5.355055   175A      5.355068   176A      5.479863

    Beta Occupied:

       1A    -10.167760     2A    -10.167760     3A    -10.167734
       4A    -10.166404     5A     -0.781129     6A     -0.683998
       7A     -0.683998     8A     -0.511721     9A     -0.430886
      10A     -0.430885    11A     -0.422064    12A     -0.376945
      13A     -0.376943    14A     -0.362311    15A     -0.333075
      16A     -0.333075

    Beta Virtual:

      17A     -0.025594    18A      0.077063    19A      0.135004
      20A      0.135005    21A      0.144427    22A      0.144427
      23A      0.163371    24A      0.182565    25A      0.182566
      26A      0.214899    27A      0.219002    28A      0.282459
      29A      0.282461    30A      0.400410    31A      0.400414
      32A      0.419771    33A      0.426917    34A      0.426918
      35A      0.468569    36A      0.497598    37A      0.497599
      38A      0.513994    39A      0.556369    40A      0.584282
      41A      0.584290    42A      0.598101    43A      0.598102
      44A      0.610279    45A      0.628011    46A      0.631810
      47A      0.639417    48A      0.639421    49A      0.667119
      50A      0.667120    51A      0.686466    52A      0.686468
      53A      0.757640    54A      0.830727    55A      0.830730
      56A      0.855220    57A      0.923156    58A      0.923163
      59A      0.946067    60A      0.953595    61A      0.966516
      62A      0.966532    63A      1.007765    64A      1.131997
      65A      1.132009    66A      1.155960    67A      1.168431
      68A      1.168444    69A      1.232720    70A      1.280353
      71A      1.280357    72A      1.285262    73A      1.329171
      74A      1.329173    75A      1.366448    76A      1.370947
      77A      1.370951    78A      1.393434    79A      1.408161
      80A      1.408163    81A      1.422774    82A      1.422781
      83A      1.428375    84A      1.492054    85A      1.510072
      86A      1.546727    87A      1.546728    88A      1.582349
      89A      1.582350    90A      1.674151    91A      1.745379
      92A      1.745390    93A      1.779308    94A      1.834931
      95A      1.834932    96A      1.972032    97A      2.025784
      98A      2.025788    99A      2.039925   100A      2.059706
     101A      2.059706   102A      2.747149   103A      2.747150
     104A      2.811531   105A      2.816363   106A      2.902798
     107A      2.902803   108A      2.924699   109A      2.931851
     110A      2.931860   111A      2.959895   112A      2.968930
     113A      2.968944   114A      3.041946   115A      3.081786
     116A      3.081797   117A      3.086097   118A      3.184632
     119A      3.184636   120A      3.187998   121A      3.289804
     122A      3.289804   123A      3.330020   124A      3.330025
     125A      3.383771   126A      3.493064   127A      3.493084
     128A      3.512812   129A      3.528269   130A      3.575474
     131A      3.582068   132A      3.582090   133A      3.671203
     134A      3.671214   135A      3.691937   136A      3.726013
     137A      3.726029   138A      3.782164   139A      3.782190
     140A      3.818956   141A      3.921930   142A      3.921937
     143A      4.046504   144A      4.117838   145A      4.117840
     146A      4.155087   147A      4.155096   148A      4.187406
     149A      4.209325   150A      4.209329   151A      4.211016
     152A      4.215384   153A      4.323603   154A      4.323624
     155A      4.362204   156A      4.433219   157A      4.433221
     158A      4.445461   159A      4.524506   160A      4.524508
     161A      4.588801   162A      4.588813   163A      4.625627
     164A      4.720155   165A      4.781815   166A      4.781823
     167A      4.840057   168A      4.967575   169A      5.007671
     170A      5.007684   171A      5.233872   172A      5.248591
     173A      5.248591   174A      5.361552   175A      5.361565
     176A      5.482185

    Final Occupation by Irrep:
              A
    DOCC [    16 ]
    SOCC [     1 ]

  @DF-UKS Final Energy:  -157.81307335875096

   => Energetics <=

    Nuclear Repulsion Energy =            125.4033519224698523
    One-Electron Energy =                -458.7664703577629552
    Two-Electron Energy =                 195.8574429235877972
    DFT Exchange-Correlation Energy =     -20.3073978470456140
    Empirical Dispersion Energy =           0.0000000000000000
    VV10 Nonlocal Energy =                  0.0000000000000000
    Total Energy =                       -157.8130733587509553

  UHF NO Occupations:
  HONO-2 :   15  A 1.9996019
  HONO-1 :   16  A 1.9989796
  HONO-0 :   17  A 1.0000000
  LUNO+0 :   18  A 0.0010204
  LUNO+1 :   19  A 0.0003981
  LUNO+2 :   20  A 0.0001975
  LUNO+3 :   21  A 0.0001975

Computation Completed

Properties will be evaluated at   0.000000,   0.000000,   0.000000 [a0]

Properties computed using the SCF density matrix

  Nuclear Dipole Moment: [e a0]
     X:     0.8175      Y:    -0.0000      Z:     0.0000

  Electronic Dipole Moment: [e a0]
     X:    -0.7395      Y:     0.0000      Z:    -0.0000

  Dipole Moment: [e a0]
     X:     0.0780      Y:     0.0000      Z:     0.0000     Total:     0.0780

  Dipole Moment: [D]
     X:     0.1984      Y:     0.0000      Z:     0.0000     Total:     0.1984

*** tstop() called on n079 at Fri Nov  5 12:42:16 2021
Module time:
	user time   =     467.10 seconds =       7.79 minutes
	system time =       4.40 seconds =       0.07 minutes
	total time  =        119 seconds =       1.98 minutes
Total time:
	user time   =     467.10 seconds =       7.79 minutes
	system time =       4.40 seconds =       0.07 minutes
	total time  =        119 seconds =       1.98 minutes
Grab this energy -157.81307335875096
    Psi4 stopped on: Friday, 05 November 2021 12:42PM
    Psi4 wall time for execution: 0:01:58.62

*** Psi4 exiting successfully. Buy a developer a beer!
