                               Psi4 1.4a2.dev629

  ==> Input File <==

--------------------------------------------------------------------------
import os
memory 14 GB

molecule {
 C   -0.3233631262   -0.0000022741    0.0004932233
 C    0.0609628325   -1.4001948507   -2.4251578889
 C    0.0609268270    2.8011007130    0.0000398617
 C    0.0611306558   -1.4009022858    2.4264629136
 H    2.0937133670   -1.6436893597   -2.8467613397
 H   -0.7687698259   -0.3830789175   -4.0294847702
 H   -0.7690252091   -3.2975053987   -2.3462711125
 H    2.0899520437    3.2877426294   -0.0000286724
 H   -0.7672639266    3.6799580077    1.6789606363
 H   -0.7670816096    3.6809480693   -1.6796179812
 H    2.0864697485   -1.6441454343    2.8474947210
 H   -0.7651660107   -3.2915244339    2.3492580825
 H   -0.7650936432   -0.3887307785    4.0246123265
units bohr
0 2
}

basis {

assign 6-31g_2dfp_

[ 6-31g_2dfp_ ]

spherical

!----------------------------------------------------------------------
! Basis Set Exchange
! Version v0.8.13
! https://www.basissetexchange.org
!----------------------------------------------------------------------
!   Basis set: 6-31G(2df,p)
! Description: 6-31G(2df,p)
!        Role: orbital
!     Version: 0  (Data from the original Basis Set Exchange)
!----------------------------------------------------------------------

****
H     0
S    3   1.00
     18.7311370              0.03349460
      2.8253937              0.23472695
      0.6401217              0.81375733
S    1   1.00
      0.1612778              1.00000000
P    1   1.00
      1.5000000              1.0000000
P    1   1.00
      0.3750000              1.0000000
****
B     0
S    6   1.00
   2068.8823000              0.0018663
    310.6495700              0.0142515
     70.6830330              0.0695516
     19.8610800              0.2325729
      6.2993048              0.4670787
      2.1270270              0.3634314
SP   3   1.00
      4.7279710             -0.1303938              0.0745976
      1.1903377             -0.1307889              0.3078467
      0.3594117              1.1309444              0.7434568
SP   1   1.00
      0.1267512              1.0000000              1.0000000
D    1   1.00
      0.8020000              1.0000000
D    1   1.00
      0.2005000              1.0000000
F    1   1.00
      0.5000000              1.0000000
****
C     0
S    6   1.00
   3047.5249000              0.0018347
    457.3695100              0.0140373
    103.9486900              0.0688426
     29.2101550              0.2321844
      9.2866630              0.4679413
      3.1639270              0.3623120
SP   3   1.00
      7.8682724             -0.1193324              0.0689991
      1.8812885             -0.1608542              0.3164240
      0.5442493              1.1434564              0.7443083
SP   1   1.00
      0.1687144              1.0000000              1.0000000
D    1   1.00
      1.2520000              1.0000000
D    1   1.00
      0.3130000              1.0000000
F    1   1.00
      0.8000000              1.0000000
****
N     0
S    6   1.00
   4173.5110000              0.0018348
    627.4579000              0.0139950
    142.9021000              0.0685870
     40.2343300              0.2322410
     12.8202100              0.4690700
      4.3904370              0.3604550
SP   3   1.00
     11.6263580             -0.1149610              0.0675800
      2.7162800             -0.1691180              0.3239070
      0.7722180              1.1458520              0.7408950
SP   1   1.00
      0.2120313              1.0000000              1.0000000
D    1   1.00
      1.8260000              1.0000000
D    1   1.00
      0.4565000              1.0000000
F    1   1.00
      1.0000000              1.0000000
****
O     0
S    6   1.00
   5484.6717000              0.0018311
    825.2349500              0.0139501
    188.0469600              0.0684451
     52.9645000              0.2327143
     16.8975700              0.4701930
      5.7996353              0.3585209
SP   3   1.00
     15.5396160             -0.1107775              0.0708743
      3.5999336             -0.1480263              0.3397528
      1.0137618              1.1307670              0.7271586
SP   1   1.00
      0.2700058              1.0000000              1.0000000
D    1   1.00
      2.5840000              1.0000000
D    1   1.00
      0.6460000              1.0000000
F    1   1.00
      1.4000000              1.0000000
****
F     0
S    6   1.00
   7001.7130900              0.0018196169
   1051.3660900              0.0139160796
    239.2856900              0.0684053245
     67.3974453              0.233185760
     21.5199573              0.471267439
      7.40310130             0.356618546
SP   3   1.00
     20.8479528             -0.108506975            0.0716287243
      4.80830834            -0.146451658            0.3459121030
      1.34406986             1.128688580            0.7224699570
SP   1   1.00
      0.358151393            1.0000000              1.0000000
D    1   1.00
      3.5000000              1.0000000
D    1   1.00
      0.8750000              1.0000000
F    1   1.00
      1.8500000              1.0000000
****
Al     0
S    6   1.00
  13983.1000000              0.00194267
   2098.7500000              0.0148599
    477.7050000              0.0728494
    134.3600000              0.2468300
     42.8709000              0.4872580
     14.5189000              0.3234960
SP   6   1.00
    239.6680000             -0.00292619             0.00460285
     57.4419000             -0.0374080              0.0331990
     18.2859000             -0.1144870              0.1362820
      6.5991400              0.1156350              0.3304760
      2.4904900              0.6125950              0.4491460
      0.9445400              0.3937990              0.2657040
SP   3   1.00
      1.2779000             -0.2276060             -0.0175130
      0.3975900              0.00144583             0.2445330
      0.1600950              1.0927900              0.8049340
SP   1   1.00
      0.0556577              1.0000000              1.0000000
D    1   1.00
      0.6500000              1.0000000
D    1   1.00
      0.1625000              1.0000000
F    1   1.00
      0.2500000              1.0000000
****
Si     0
S    6   1.00
  16115.9000000              0.00195948
   2425.5800000              0.01492880
    553.8670000              0.07284780
    156.3400000              0.24613000
     50.0683000              0.48591400
     17.0178000              0.32500200
SP   6   1.00
    292.7180000             -0.00278094             0.00443826
     69.8731000             -0.03571460             0.03266790
     22.3363000             -0.11498500             0.13472100
      8.1503900              0.09356340             0.32867800
      3.1345800              0.60301700             0.44964000
      1.2254300              0.41895900             0.26137200
SP   3   1.00
      1.7273800             -0.24463000            -0.01779510
      0.5729220              0.00431572             0.25353900
      0.2221920              1.09818000             0.80066900
SP   1   1.00
      0.0778369              1.00000000             1.00000000
D    1   1.00
      0.9000000              1.0000000
D    1   1.00
      0.2250000              1.0000000
F    1   1.00
      0.3200000              1.0000000
****
P     0
S    6   1.00
  19413.3000000              0.0018516
   2909.4200000              0.0142062
    661.3640000              0.0699995
    185.7590000              0.2400790
     59.1943000              0.4847620
     20.0310000              0.3352000
SP   6   1.00
    339.4780000             -0.00278217             0.00456462
     81.0101000             -0.0360499              0.03369360
     25.8780000             -0.1166310              0.13975500
      9.4522100              0.0968328              0.33936200
      3.6656600              0.6144180              0.45092100
      1.4674600              0.4037980              0.23858600
SP   3   1.00
      2.1562300             -0.2529230             -0.01776530
      0.7489970              0.0328517              0.27405800
      0.2831450              1.0812500              0.78542100
SP   1   1.00
      0.0998317              1.0000000              1.00000000
D    1   1.00
      1.1000000              1.0000000
D    1   1.00
      0.2750000              1.0000000
F    1   1.00
      0.4500000              1.0000000
****
S     0
S    6   1.00
  21917.1000000              0.0018690
   3301.4900000              0.0142300
    754.1460000              0.0696960
    212.7110000              0.2384870
     67.9896000              0.4833070
     23.0515000              0.3380740
SP   6   1.00
    423.7350000             -0.0023767              0.0040610
    100.7100000             -0.0316930              0.0306810
     32.1599000             -0.1133170              0.1304520
     11.8079000              0.0560900              0.3272050
      4.6311000              0.5922550              0.4528510
      1.8702500              0.4550060              0.2560420
SP   3   1.00
      2.6158400             -0.2503740             -0.0145110
      0.9221670              0.0669570              0.3102630
      0.3412870              1.0545100              0.7544830
SP   1   1.00
      0.1171670              1.0000000              1.0000000
D    1   1.00
      1.3000000              1.0000000
D    1   1.00
      0.3250000              1.0000000
F    1   1.00
      0.5500000              1.0000000
****
Cl     0
S    6   1.00
  25180.1000000              0.0018330
   3780.3500000              0.0140340
    860.4740000              0.0690970
    242.1450000              0.2374520
     77.3349000              0.4830340
     26.2470000              0.3398560
SP   6   1.00
    491.7650000             -0.0022974              0.0039894
    116.9840000             -0.0307140              0.0303180
     37.4153000             -0.1125280              0.1298800
     13.7834000              0.0450160              0.3279510
      5.4521500              0.5893530              0.4535270
      2.2258800              0.4652060              0.2521540
SP   3   1.00
      3.1864900             -0.2518300             -0.0142990
      1.1442700              0.0615890              0.3235720
      0.4203770              1.0601800              0.7435070
SP   1   1.00
      0.1426570              1.0000000              1.0000000
D    1   1.00
      1.5000000              1.0000000
D    1   1.00
      0.3750000              1.0000000
F    1   1.00
      0.7000000              1.0000000
****
}

set {
reference uhf
freeze_core true
e_convergence 10
d_convergence 10
dft_spherical_points 1202
dft_radial_points 99
}

e = energy('b3lyp')

print_out('Grab this energy {0}'.format(e))
--------------------------------------------------------------------------

    Molecular point group: c1

    Geometry (in Bohr), charge = 0, multiplicity = 2:

       Center              X                  Y                   Z               Mass
    ------------   -----------------  -----------------  -----------------  -----------------
         C           -0.323304799719    -0.000002095586     0.000139190133    12.000000000000
         C            0.061021158981    -1.400194672186    -2.425511922067    12.000000000000
         C            0.060985153481     2.801100891514    -0.000314171467    12.000000000000
         C            0.061188982281    -1.400902107286     2.426108880433    12.000000000000
         H            2.093771693481    -1.643689181186    -2.847115372867     1.007825032230
         H           -0.768711499419    -0.383078738986    -4.029838803367     1.007825032230
         H           -0.768966882619    -3.297505220186    -2.346625145667     1.007825032230
         H            2.090010370181     3.287742807914    -0.000382705567     1.007825032230
         H           -0.767205600119     3.679958186214     1.678606603133     1.007825032230
         H           -0.767023283119     3.680948247814    -1.679972014367     1.007825032230
         H            2.086528074981    -1.644145255786     2.847140687833     1.007825032230
         H           -0.765107684219    -3.291524255386     2.348904049333     1.007825032230
         H           -0.765035316719    -0.388730599986     4.024258293333     1.007825032230

  Charge       = 0
  Multiplicity = 2
  Basis Set: ANONYMOUSE7B50D23
    Blend: 6-31G_2DFP_
  Basis Set: (ANONYMOUSE7B50D23 AUX)
    Blend: DEF2-UNIVERSAL-JKFIT

    Orbital Energies [Eh]
    ---------------------

    Alpha Occupied:

       1A    -10.180410     2A    -10.168130     3A    -10.167551
       4A    -10.166970     5A     -0.797807     6A     -0.686149
       7A     -0.685508     8A     -0.530464     9A     -0.441025
      10A     -0.434619    11A     -0.434446    12A     -0.382563
      13A     -0.382118    14A     -0.363297    15A     -0.338025
      16A     -0.337961    17A     -0.169023

    Alpha Virtual:

      18A      0.075738    19A      0.133773    20A      0.133786
      21A      0.142128    22A      0.142322    23A      0.154576
      24A      0.177950    25A      0.178597    26A      0.203657
      27A      0.214350    28A      0.275917    29A      0.276008
      30A      0.399203    31A      0.399362    32A      0.403136
      33A      0.423728    34A      0.423918    35A      0.456458
      36A      0.495097    37A      0.495236    38A      0.511893
      39A      0.513845    40A      0.578356    41A      0.578602
      42A      0.590722    43A      0.591321    44A      0.601942
      45A      0.623794    46A      0.630998    47A      0.635347
      48A      0.636107    49A      0.662899    50A      0.663262
      51A      0.683005    52A      0.683622    53A      0.734684
      54A      0.824187    55A      0.824985    56A      0.853400
      57A      0.914304    58A      0.914327    59A      0.943507
      60A      0.943822    61A      0.960396    62A      0.960890
      63A      1.003355    64A      1.127361    65A      1.128018
      66A      1.141349    67A      1.162925    68A      1.163099
      69A      1.222880    70A      1.273775    71A      1.274132
      72A      1.279802    73A      1.323282    74A      1.323999
      75A      1.355127    76A      1.365285    77A      1.365819
      78A      1.391872    79A      1.402630    80A      1.403408
      81A      1.415850    82A      1.416486    83A      1.427160
      84A      1.490603    85A      1.497727    86A      1.542266
      87A      1.542367    88A      1.573991    89A      1.574577
      90A      1.667635    91A      1.737901    92A      1.738041
      93A      1.766815    94A      1.827377    95A      1.830536
      96A      1.970072    97A      2.016963    98A      2.017819
      99A      2.018111   100A      2.051520   101A      2.051652
     102A      2.737064   103A      2.737956   104A      2.790713
     105A      2.810918   106A      2.889091   107A      2.889643
     108A      2.894902   109A      2.929016   110A      2.929213
     111A      2.958387   112A      2.963215   113A      2.964262
     114A      3.033120   115A      3.070111   116A      3.070560
     117A      3.083460   118A      3.169319   119A      3.169578
     120A      3.180298   121A      3.285292   122A      3.285421
     123A      3.327622   124A      3.327727   125A      3.376306
     126A      3.490322   127A      3.491986   128A      3.514311
     129A      3.525969   130A      3.568145   131A      3.568225
     132A      3.576856   133A      3.664836   134A      3.666350
     135A      3.677841   136A      3.692865   137A      3.693787
     138A      3.775686   139A      3.776855   140A      3.788559
     141A      3.910826   142A      3.911723   143A      4.032086
     144A      4.108144   145A      4.109527   146A      4.142795
     147A      4.146738   148A      4.170365   149A      4.199386
     150A      4.201492   151A      4.203611   152A      4.207515
     153A      4.313044   154A      4.314403   155A      4.356537
     156A      4.421594   157A      4.422075   158A      4.441521
     159A      4.514174   160A      4.514621   161A      4.576365
     162A      4.577258   163A      4.616846   164A      4.707465
     165A      4.772709   166A      4.772939   167A      4.834520
     168A      4.962093   169A      5.001329   170A      5.002439
     171A      5.222548   172A      5.237823   173A      5.245187
     174A      5.348002   175A      5.354025   176A      5.476215

    Beta Occupied:

       1A    -10.168894     2A    -10.168312     3A    -10.167730
       4A    -10.166601     5A     -0.781105     6A     -0.683953
       7A     -0.683312     8A     -0.511493     9A     -0.430992
      10A     -0.430798    11A     -0.421687    12A     -0.376648
      13A     -0.376185    14A     -0.362277    15A     -0.333150
      16A     -0.333101

    Beta Virtual:

      17A     -0.025977    18A      0.076751    19A      0.134599
      20A      0.134726    21A      0.144073    22A      0.144171
      23A      0.163098    24A      0.181640    25A      0.182269
      26A      0.214582    27A      0.219020    28A      0.282253
      29A      0.282349    30A      0.400374    31A      0.400540
      32A      0.419568    33A      0.426534    34A      0.426730
      35A      0.468384    36A      0.497358    37A      0.497497
      38A      0.513634    39A      0.556132    40A      0.583882
      41A      0.584142    42A      0.596906    43A      0.597459
      44A      0.609374    45A      0.627181    46A      0.631196
      47A      0.638659    48A      0.639376    49A      0.666444
      50A      0.666834    51A      0.685711    52A      0.686258
      53A      0.757182    54A      0.829331    55A      0.830181
      56A      0.854778    57A      0.922291    58A      0.922311
      59A      0.945344    60A      0.952728    61A      0.965739
      62A      0.966176    63A      1.008583    64A      1.131388
      65A      1.132076    66A      1.154735    67A      1.167955
      68A      1.168158    69A      1.231871    70A      1.279383
      71A      1.279744    72A      1.285568    73A      1.328199
      74A      1.329009    75A      1.364513    76A      1.370546
      77A      1.371053    78A      1.392936    79A      1.406080
      80A      1.406896    81A      1.420855    82A      1.421582
      83A      1.427439    84A      1.491647    85A      1.508169
      86A      1.546759    87A      1.546951    88A      1.581763
      89A      1.582332    90A      1.672408    91A      1.743676
      92A      1.743781    93A      1.777647    94A      1.831293
      95A      1.834392    96A      1.970939    97A      2.024214
      98A      2.024294    99A      2.038610   100A      2.058180
     101A      2.058431   102A      2.745374   103A      2.746294
     104A      2.811326   105A      2.815823   106A      2.901830
     107A      2.902214   108A      2.924544   109A      2.931602
     110A      2.931693   111A      2.959446   112A      2.967680
     113A      2.968803   114A      3.041134   115A      3.079892
     116A      3.080451   117A      3.085307   118A      3.185062
     119A      3.185395   120A      3.187953   121A      3.290118
     122A      3.290302   123A      3.331439   124A      3.331503
     125A      3.384101   126A      3.493039   127A      3.494639
     128A      3.512669   129A      3.528999   130A      3.576612
     131A      3.581507   132A      3.581603   133A      3.669290
     134A      3.670900   135A      3.691086   136A      3.724617
     137A      3.725549   138A      3.780260   139A      3.781365
     140A      3.817077   141A      3.920671   142A      3.921540
     143A      4.042845   144A      4.115097   145A      4.116025
     146A      4.150283   147A      4.153782   148A      4.184560
     149A      4.206082   150A      4.207623   151A      4.210682
     152A      4.212042   153A      4.320688   154A      4.321796
     155A      4.359912   156A      4.429861   157A      4.430251
     158A      4.444467   159A      4.522037   160A      4.522364
     161A      4.587046   162A      4.587844   163A      4.624046
     164A      4.717813   165A      4.779634   166A      4.779927
     167A      4.837432   168A      4.966916   169A      5.005405
     170A      5.006481   171A      5.228282   172A      5.239622
     173A      5.246979   174A      5.354523   175A      5.360516
     176A      5.478548

    Final Occupation by Irrep:
              A
    DOCC [    16 ]
    SOCC [     1 ]

  @DF-UKS Final Energy:  -157.81307775759066

   => Energetics <=

    Nuclear Repulsion Energy =            125.3573299661319140
    One-Electron Energy =                -458.6781517966990691
    Two-Electron Energy =                 195.8108716464268468
    DFT Exchange-Correlation Energy =     -20.3031275734503289
    Empirical Dispersion Energy =           0.0000000000000000
    VV10 Nonlocal Energy =                  0.0000000000000000
    Total Energy =                       -157.8130777575906620

  UHF NO Occupations:
  HONO-2 :   15  A 1.9995983
  HONO-1 :   16  A 1.9989811
  HONO-0 :   17  A 1.0000000
  LUNO+0 :   18  A 0.0010189
  LUNO+1 :   19  A 0.0004017
  LUNO+2 :   20  A 0.0001972
  LUNO+3 :   21  A 0.0001971

Computation Completed

Properties will be evaluated at   0.000000,   0.000000,   0.000000 [a0]

Properties computed using the SCF density matrix

  Nuclear Dipole Moment: [e a0]
     X:     0.8276      Y:    -0.0000      Z:    -0.0025

  Electronic Dipole Moment: [e a0]
     X:    -0.7503      Y:     0.0000      Z:     0.0049

  Dipole Moment: [e a0]
     X:     0.0773      Y:     0.0000      Z:     0.0025     Total:     0.0773

  Dipole Moment: [D]
     X:     0.1964      Y:     0.0000      Z:     0.0062     Total:     0.1965

*** tstop() called on n071 at Fri Nov  5 14:55:35 2021
Module time:
	user time   =     577.59 seconds =       9.63 minutes
	system time =      13.46 seconds =       0.22 minutes
	total time  =        149 seconds =       2.48 minutes
Total time:
	user time   =     577.59 seconds =       9.63 minutes
	system time =      13.46 seconds =       0.22 minutes
	total time  =        149 seconds =       2.48 minutes
Grab this energy -157.81307775759066
    Psi4 stopped on: Friday, 05 November 2021 02:55PM
    Psi4 wall time for execution: 0:02:28.86

*** Psi4 exiting successfully. Buy a developer a beer!
