                               Psi4 1.4a2.dev629

  ==> Input File <==

--------------------------------------------------------------------------
import os
memory 14 GB

molecule {
 C   -0.3218818745    0.0049952322    0.0000000000
 C    0.0605846416   -1.4036163700   -2.4203226014
 C    0.0595666088    2.8097648699   -0.0000000000
 C    0.0605846416   -1.4036163700    2.4203226014
 H    2.0873721827   -1.6501276185   -2.8385985547
 H   -0.7623442450   -0.3966671773   -4.0236062756
 H   -0.7672601492   -3.2937658256   -2.3357686066
 H    2.0860762549    3.2972148501   -0.0000000000
 H   -0.7665368631    3.6881773585    1.6767521553
 H   -0.7665368631    3.6881773585   -1.6767521553
 H    2.0873721827   -1.6501276185    2.8385985547
 H   -0.7672601492   -3.2937658256    2.3357686066
 H   -0.7623442450   -0.3966671773    4.0236062756
units bohr
0 2
}

basis {

assign 6-31g_2dfp_

[ 6-31g_2dfp_ ]

spherical

!----------------------------------------------------------------------
! Basis Set Exchange
! Version v0.8.13
! https://www.basissetexchange.org
!----------------------------------------------------------------------
!   Basis set: 6-31G(2df,p)
! Description: 6-31G(2df,p)
!        Role: orbital
!     Version: 0  (Data from the original Basis Set Exchange)
!----------------------------------------------------------------------

****
H     0
S    3   1.00
     18.7311370              0.03349460
      2.8253937              0.23472695
      0.6401217              0.81375733
S    1   1.00
      0.1612778              1.00000000
P    1   1.00
      1.5000000              1.0000000
P    1   1.00
      0.3750000              1.0000000
****
B     0
S    6   1.00
   2068.8823000              0.0018663
    310.6495700              0.0142515
     70.6830330              0.0695516
     19.8610800              0.2325729
      6.2993048              0.4670787
      2.1270270              0.3634314
SP   3   1.00
      4.7279710             -0.1303938              0.0745976
      1.1903377             -0.1307889              0.3078467
      0.3594117              1.1309444              0.7434568
SP   1   1.00
      0.1267512              1.0000000              1.0000000
D    1   1.00
      0.8020000              1.0000000
D    1   1.00
      0.2005000              1.0000000
F    1   1.00
      0.5000000              1.0000000
****
C     0
S    6   1.00
   3047.5249000              0.0018347
    457.3695100              0.0140373
    103.9486900              0.0688426
     29.2101550              0.2321844
      9.2866630              0.4679413
      3.1639270              0.3623120
SP   3   1.00
      7.8682724             -0.1193324              0.0689991
      1.8812885             -0.1608542              0.3164240
      0.5442493              1.1434564              0.7443083
SP   1   1.00
      0.1687144              1.0000000              1.0000000
D    1   1.00
      1.2520000              1.0000000
D    1   1.00
      0.3130000              1.0000000
F    1   1.00
      0.8000000              1.0000000
****
N     0
S    6   1.00
   4173.5110000              0.0018348
    627.4579000              0.0139950
    142.9021000              0.0685870
     40.2343300              0.2322410
     12.8202100              0.4690700
      4.3904370              0.3604550
SP   3   1.00
     11.6263580             -0.1149610              0.0675800
      2.7162800             -0.1691180              0.3239070
      0.7722180              1.1458520              0.7408950
SP   1   1.00
      0.2120313              1.0000000              1.0000000
D    1   1.00
      1.8260000              1.0000000
D    1   1.00
      0.4565000              1.0000000
F    1   1.00
      1.0000000              1.0000000
****
O     0
S    6   1.00
   5484.6717000              0.0018311
    825.2349500              0.0139501
    188.0469600              0.0684451
     52.9645000              0.2327143
     16.8975700              0.4701930
      5.7996353              0.3585209
SP   3   1.00
     15.5396160             -0.1107775              0.0708743
      3.5999336             -0.1480263              0.3397528
      1.0137618              1.1307670              0.7271586
SP   1   1.00
      0.2700058              1.0000000              1.0000000
D    1   1.00
      2.5840000              1.0000000
D    1   1.00
      0.6460000              1.0000000
F    1   1.00
      1.4000000              1.0000000
****
F     0
S    6   1.00
   7001.7130900              0.0018196169
   1051.3660900              0.0139160796
    239.2856900              0.0684053245
     67.3974453              0.233185760
     21.5199573              0.471267439
      7.40310130             0.356618546
SP   3   1.00
     20.8479528             -0.108506975            0.0716287243
      4.80830834            -0.146451658            0.3459121030
      1.34406986             1.128688580            0.7224699570
SP   1   1.00
      0.358151393            1.0000000              1.0000000
D    1   1.00
      3.5000000              1.0000000
D    1   1.00
      0.8750000              1.0000000
F    1   1.00
      1.8500000              1.0000000
****
Al     0
S    6   1.00
  13983.1000000              0.00194267
   2098.7500000              0.0148599
    477.7050000              0.0728494
    134.3600000              0.2468300
     42.8709000              0.4872580
     14.5189000              0.3234960
SP   6   1.00
    239.6680000             -0.00292619             0.00460285
     57.4419000             -0.0374080              0.0331990
     18.2859000             -0.1144870              0.1362820
      6.5991400              0.1156350              0.3304760
      2.4904900              0.6125950              0.4491460
      0.9445400              0.3937990              0.2657040
SP   3   1.00
      1.2779000             -0.2276060             -0.0175130
      0.3975900              0.00144583             0.2445330
      0.1600950              1.0927900              0.8049340
SP   1   1.00
      0.0556577              1.0000000              1.0000000
D    1   1.00
      0.6500000              1.0000000
D    1   1.00
      0.1625000              1.0000000
F    1   1.00
      0.2500000              1.0000000
****
Si     0
S    6   1.00
  16115.9000000              0.00195948
   2425.5800000              0.01492880
    553.8670000              0.07284780
    156.3400000              0.24613000
     50.0683000              0.48591400
     17.0178000              0.32500200
SP   6   1.00
    292.7180000             -0.00278094             0.00443826
     69.8731000             -0.03571460             0.03266790
     22.3363000             -0.11498500             0.13472100
      8.1503900              0.09356340             0.32867800
      3.1345800              0.60301700             0.44964000
      1.2254300              0.41895900             0.26137200
SP   3   1.00
      1.7273800             -0.24463000            -0.01779510
      0.5729220              0.00431572             0.25353900
      0.2221920              1.09818000             0.80066900
SP   1   1.00
      0.0778369              1.00000000             1.00000000
D    1   1.00
      0.9000000              1.0000000
D    1   1.00
      0.2250000              1.0000000
F    1   1.00
      0.3200000              1.0000000
****
P     0
S    6   1.00
  19413.3000000              0.0018516
   2909.4200000              0.0142062
    661.3640000              0.0699995
    185.7590000              0.2400790
     59.1943000              0.4847620
     20.0310000              0.3352000
SP   6   1.00
    339.4780000             -0.00278217             0.00456462
     81.0101000             -0.0360499              0.03369360
     25.8780000             -0.1166310              0.13975500
      9.4522100              0.0968328              0.33936200
      3.6656600              0.6144180              0.45092100
      1.4674600              0.4037980              0.23858600
SP   3   1.00
      2.1562300             -0.2529230             -0.01776530
      0.7489970              0.0328517              0.27405800
      0.2831450              1.0812500              0.78542100
SP   1   1.00
      0.0998317              1.0000000              1.00000000
D    1   1.00
      1.1000000              1.0000000
D    1   1.00
      0.2750000              1.0000000
F    1   1.00
      0.4500000              1.0000000
****
S     0
S    6   1.00
  21917.1000000              0.0018690
   3301.4900000              0.0142300
    754.1460000              0.0696960
    212.7110000              0.2384870
     67.9896000              0.4833070
     23.0515000              0.3380740
SP   6   1.00
    423.7350000             -0.0023767              0.0040610
    100.7100000             -0.0316930              0.0306810
     32.1599000             -0.1133170              0.1304520
     11.8079000              0.0560900              0.3272050
      4.6311000              0.5922550              0.4528510
      1.8702500              0.4550060              0.2560420
SP   3   1.00
      2.6158400             -0.2503740             -0.0145110
      0.9221670              0.0669570              0.3102630
      0.3412870              1.0545100              0.7544830
SP   1   1.00
      0.1171670              1.0000000              1.0000000
D    1   1.00
      1.3000000              1.0000000
D    1   1.00
      0.3250000              1.0000000
F    1   1.00
      0.5500000              1.0000000
****
Cl     0
S    6   1.00
  25180.1000000              0.0018330
   3780.3500000              0.0140340
    860.4740000              0.0690970
    242.1450000              0.2374520
     77.3349000              0.4830340
     26.2470000              0.3398560
SP   6   1.00
    491.7650000             -0.0022974              0.0039894
    116.9840000             -0.0307140              0.0303180
     37.4153000             -0.1125280              0.1298800
     13.7834000              0.0450160              0.3279510
      5.4521500              0.5893530              0.4535270
      2.2258800              0.4652060              0.2521540
SP   3   1.00
      3.1864900             -0.2518300             -0.0142990
      1.1442700              0.0615890              0.3235720
      0.4203770              1.0601800              0.7435070
SP   1   1.00
      0.1426570              1.0000000              1.0000000
D    1   1.00
      1.5000000              1.0000000
D    1   1.00
      0.3750000              1.0000000
F    1   1.00
      0.7000000              1.0000000
****
}

set {
reference uhf
freeze_core true
e_convergence 10
d_convergence 10
dft_spherical_points 1202
dft_radial_points 99
}

e = energy('b3lyp')

print_out('Grab this energy {0}'.format(e))
--------------------------------------------------------------------------

    Molecular point group: cs

    Geometry (in Bohr), charge = 0, multiplicity = 2:

       Center              X                  Y                   Z               Mass
    ------------   -----------------  -----------------  -----------------  -----------------
         C           -0.321668851384     0.003545837404     0.000000000000    12.000000000000
         C            0.060797664716    -1.405065764796    -2.420322601400    12.000000000000
         C            0.059779631916     2.808315475104     0.000000000000    12.000000000000
         C            0.060797664716    -1.405065764796     2.420322601400    12.000000000000
         H            2.087585205816    -1.651577013296    -2.838598554700     1.007825032230
         H           -0.762131221884    -0.398116572096    -4.023606275600     1.007825032230
         H           -0.767047126084    -3.295215220396    -2.335768606600     1.007825032230
         H            2.086289278016     3.295765455304     0.000000000000     1.007825032230
         H           -0.766323839984     3.686727963704     1.676752155300     1.007825032230
         H           -0.766323839984     3.686727963704    -1.676752155300     1.007825032230
         H            2.087585205816    -1.651577013296     2.838598554700     1.007825032230
         H           -0.767047126084    -3.295215220396     2.335768606600     1.007825032230
         H           -0.762131221884    -0.398116572096     4.023606275600     1.007825032230

  Charge       = 0
  Multiplicity = 2
  Basis Set: ANONYMOUS6272501F
    Blend: 6-31G_2DFP_
  Basis Set: (ANONYMOUS6272501F AUX)
    Blend: DEF2-UNIVERSAL-JKFIT

    Orbital Energies [Eh]
    ---------------------

    Alpha Occupied:

       1Ap   -10.180276     2Ap   -10.167337     1App  -10.166883
       3Ap   -10.166851     4Ap    -0.797785     5Ap    -0.686425
       2App   -0.685981     6Ap    -0.530771     7Ap    -0.441069
       8Ap    -0.435000     3App   -0.434469     9Ap    -0.382638
       4App   -0.382345     5App   -0.363737    10Ap    -0.338366
       6App   -0.337812    11Ap    -0.168778

    Alpha Virtual:

      12Ap     0.076069    13Ap     0.133919     7App    0.134400
      14Ap     0.142512     8App    0.142791    15Ap     0.154800
      16Ap     0.178486     9App    0.178934    17Ap     0.203518
      10App    0.214855    18Ap     0.275989    11App    0.276329
      19Ap     0.399044    12App    0.399392    20Ap     0.403490
      21Ap     0.423994    13App    0.424266    22Ap     0.456501
      23Ap     0.495009    14App    0.495811    15App    0.512127
      24Ap     0.514085    25Ap     0.578415    16App    0.578938
      26Ap     0.591589    17App    0.591632    27Ap     0.602355
      28Ap     0.624849    18App    0.631829    19App    0.636187
      29Ap     0.636628    30Ap     0.663036    20App    0.663472
      31Ap     0.683717    21App    0.684211    32Ap     0.735189
      33Ap     0.824635    22App    0.826277    23App    0.853913
      34Ap     0.914842    24App    0.915341    25App    0.944001
      35Ap     0.944471    26App    0.961112    36Ap     0.961647
      37Ap     1.003470    38Ap     1.126846    27App    1.129205
      39Ap     1.142197    40Ap     1.162343    28App    1.163327
      41Ap     1.223495    42Ap     1.274037    29App    1.275086
      43Ap     1.279113    30App    1.324517    44Ap     1.324693
      45Ap     1.355754    46Ap     1.365716    31App    1.367086
      32App    1.392436    47Ap     1.403209    33App    1.404868
      48Ap     1.416399    34App    1.417363    35App    1.427878
      36App    1.491620    49Ap     1.498670    50Ap     1.542408
      37App    1.543164    51Ap     1.572873    38App    1.576696
      52Ap     1.670088    53Ap     1.738565    39App    1.740716
      54Ap     1.768290    55Ap     1.831277    40App    1.832302
      41App    1.971986    56Ap     2.017296    57Ap     2.019286
      42App    2.020187    58Ap     2.049730    43App    2.054865
      59Ap     2.738413    44App    2.738945    60Ap     2.790722
      45App    2.811471    46App    2.890104    61Ap     2.890292
      62Ap     2.894634    63Ap     2.929292    47App    2.929654
      48App    2.959058    64Ap     2.963579    49App    2.965421
      65Ap     3.033657    66Ap     3.071139    50App    3.073082
      51App    3.084460    67Ap     3.167886    52App    3.169482
      68Ap     3.180595    53App    3.283795    69Ap     3.285221
      70Ap     3.325859    54App    3.327768    71Ap     3.375495
      72Ap     3.489892    55App    3.490816    56App    3.514216
      73Ap     3.524839    74Ap     3.567597    57App    3.569554
      58App    3.574824    75Ap     3.666845    59App    3.667081
      76Ap     3.679877    60App    3.693595    77Ap     3.694480
      61App    3.776300    78Ap     3.777782    79Ap     3.790557
      80Ap     3.910826    62App    3.913677    81Ap     4.034786
      82Ap     4.110249    63App    4.112994    83Ap     4.146473
      64App    4.149797    84Ap     4.173268    85Ap     4.201131
      86Ap     4.203051    65App    4.204366    66App    4.210924
      67App    4.315735    87Ap     4.315764    68App    4.358517
      88Ap     4.424461    69App    4.424641    70App    4.443800
      89Ap     4.515667    71App    4.517447    90Ap     4.577094
      72App    4.579215    91Ap     4.618030    92Ap     4.709113
      93Ap     4.773477    73App    4.776027    74App    4.838136
      94Ap     4.962762    95Ap     5.001835    75App    5.003787
      96Ap     5.228134    76App    5.246765    97Ap     5.247093
      98Ap     5.355072    77App    5.356484    78App    5.479696

    Beta Occupied:

       1Ap   -10.168096     1App  -10.167639     2Ap   -10.167622
       3Ap   -10.166457     4Ap    -0.781106     5Ap    -0.684233
       2App   -0.683782     6Ap    -0.511750     7Ap    -0.431390
       3App   -0.430842     8Ap    -0.421735     9Ap    -0.376722
       4App   -0.376410     5App   -0.362722    10Ap    -0.333489
       6App   -0.332928

    Beta Virtual:

      11Ap    -0.025642    12Ap     0.077082    13Ap     0.134808
       7App    0.135310    14Ap     0.144386     8App    0.144652
      15Ap     0.163270    16Ap     0.182146     9App    0.182615
      10App    0.215085    17Ap     0.218923    18Ap     0.282313
      11App    0.282676    19Ap     0.400291    12App    0.400539
      20Ap     0.419905    21Ap     0.426788    13App    0.427090
      22Ap     0.468398    23Ap     0.497265    14App    0.498070
      15App    0.513867    24Ap     0.556428    25Ap     0.584009
      16App    0.584473    26Ap     0.597748    17App    0.597818
      27Ap     0.609801    28Ap     0.628207    18App    0.631986
      19App    0.639448    29Ap     0.639926    30Ap     0.666570
      20App    0.667059    31Ap     0.686307    21App    0.686905
      32Ap     0.757691    33Ap     0.829789    22App    0.831451
      23App    0.855270    34Ap     0.922787    24App    0.923316
      25App    0.945865    35Ap     0.953393    26App    0.966377
      36Ap     0.967055    37Ap     1.008689    38Ap     1.130877
      27App    1.133217    39Ap     1.155600    40Ap     1.167392
      28App    1.168436    41Ap     1.232468    42Ap     1.279616
      29App    1.280670    43Ap     1.284857    30App    1.329482
      44Ap     1.329691    45Ap     1.365196    46Ap     1.370857
      31App    1.372431    32App    1.393504    47Ap     1.406716
      33App    1.408304    48Ap     1.421466    34App    1.422430
      35App    1.428146    36App    1.492673    49Ap     1.509107
      50Ap     1.546708    37App    1.547677    51Ap     1.580897
      38App    1.584416    52Ap     1.674919    53Ap     1.744335
      39App    1.746475    54Ap     1.779089    55Ap     1.835123
      40App    1.836183    41App    1.972850    56Ap     2.023648
      42App    2.026656    57Ap     2.040634    58Ap     2.056527
      43App    2.061467    59Ap     2.746705    44App    2.747326
      45App    2.811875    60Ap     2.815876    46App    2.902783
      61Ap     2.902902    62Ap     2.924354    63Ap     2.931881
      47App    2.932056    48App    2.960125    64Ap     2.968145
      49App    2.969919    65Ap     3.041633    66Ap     3.080899
      50App    3.082861    51App    3.086491    67Ap     3.183846
      52App    3.185209    68Ap     3.188227    53App    3.288699
      69Ap     3.289998    70Ap     3.329647    54App    3.331573
      71Ap     3.383302    72Ap     3.492613    55App    3.493512
      56App    3.512587    73Ap     3.527885    57App    3.574203
      74Ap     3.580889    58App    3.583328    75Ap     3.671583
      59App    3.671871    76Ap     3.693178    60App    3.725262
      77Ap     3.726056    61App    3.780767    78Ap     3.782365
      79Ap     3.819033    80Ap     3.920680    62App    3.923531
      81Ap     4.045645    82Ap     4.117086    63App    4.119816
      83Ap     4.153724    64App    4.156938    84Ap     4.187369
      85Ap     4.207055    65App    4.210289    86Ap     4.210999
      66App    4.215457    67App    4.323136    87Ap     4.323202
      68App    4.361879    88Ap     4.432744    69App    4.432826
      70App    4.446729    89Ap     4.523573    71App    4.525150
      90Ap     4.587582    72App    4.589864    91Ap     4.625231
      92Ap     4.719433    93Ap     4.780380    73App    4.782999
      74App    4.841044    94Ap     4.967558    95Ap     5.005890
      75App    5.007839    96Ap     5.233846    76App    5.248544
      97Ap     5.248884    98Ap     5.361527    77App    5.362974
      78App    5.482011

    Final Occupation by Irrep:
             Ap   App
    DOCC [    10,    6 ]
    SOCC [     1,    0 ]

  @DF-UKS Final Energy:  -157.81307243427418

   => Energetics <=

    Nuclear Repulsion Energy =            125.3972712682445376
    One-Electron Energy =                -458.7540289589796885
    Two-Electron Energy =                 195.8508991352772171
    DFT Exchange-Correlation Energy =     -20.3072138788162526
    Empirical Dispersion Energy =           0.0000000000000000
    VV10 Nonlocal Energy =                  0.0000000000000000
    Total Energy =                       -157.8130724342741757

  UHF NO Occupations:
  HONO-2 :    9 Ap 1.9995994
  HONO-1 :   10 Ap 1.9989789
  HONO-0 :   11 Ap 1.0000000
  LUNO+0 :   12 Ap 0.0010211
  LUNO+1 :   13 Ap 0.0004006
  LUNO+2 :    7App 0.0001978
  LUNO+3 :   14 Ap 0.0001971

Computation Completed

Properties will be evaluated at   0.000000,   0.000000,   0.000000 [a0]

Properties computed using the SCF density matrix

  Nuclear Dipole Moment: [e a0]
     X:     0.8287      Y:    -0.0102      Z:    -0.0000

  Electronic Dipole Moment: [e a0]
     X:    -0.7516      Y:     0.0110      Z:     0.0000

  Dipole Moment: [e a0]
     X:     0.0771      Y:     0.0008      Z:    -0.0000     Total:     0.0771

  Dipole Moment: [D]
     X:     0.1961      Y:     0.0019      Z:    -0.0000     Total:     0.1961

*** tstop() called on n049 at Fri Nov  5 11:42:52 2021
Module time:
	user time   =     541.81 seconds =       9.03 minutes
	system time =      12.14 seconds =       0.20 minutes
	total time  =        139 seconds =       2.32 minutes
Total time:
	user time   =     541.81 seconds =       9.03 minutes
	system time =      12.14 seconds =       0.20 minutes
	total time  =        139 seconds =       2.32 minutes
Grab this energy -157.81307243427418
    Psi4 stopped on: Friday, 05 November 2021 11:42AM
    Psi4 wall time for execution: 0:02:19.34

*** Psi4 exiting successfully. Buy a developer a beer!
