                               Psi4 1.4a2.dev629

  ==> Input File <==

--------------------------------------------------------------------------
import os
memory 14 GB

molecule {
 C   -0.3233399886   -0.0024284349   -0.0004321916
 C    0.0610084543   -1.4008533332   -2.4255628703
 C    0.0618177381    2.8030146085   -0.0013882466
 C    0.0604753646   -1.4021503017    2.4250282456
 H    2.0848556053   -1.6402813670   -2.8501242801
 H   -0.7679779536   -0.3887081591   -4.0199730177
 H   -0.7637990374   -3.2970235463   -2.3476916411
 H    2.0893687933    3.2872824917   -0.0034972239
 H   -0.7674343496    3.6840429779    1.6786510302
 H   -0.7610276443    3.6822270228   -1.6738674390
 H    2.0864410948   -1.6433007592    2.8483658578
 H   -0.7612070855   -3.2932483804    2.3491186641
 H   -0.7717888681   -0.3885971327    4.0213731126
units bohr
0 2
}

basis {

assign 6-31g_2dfp_

[ 6-31g_2dfp_ ]

spherical

!----------------------------------------------------------------------
! Basis Set Exchange
! Version v0.8.13
! https://www.basissetexchange.org
!----------------------------------------------------------------------
!   Basis set: 6-31G(2df,p)
! Description: 6-31G(2df,p)
!        Role: orbital
!     Version: 0  (Data from the original Basis Set Exchange)
!----------------------------------------------------------------------

****
H     0
S    3   1.00
     18.7311370              0.03349460
      2.8253937              0.23472695
      0.6401217              0.81375733
S    1   1.00
      0.1612778              1.00000000
P    1   1.00
      1.5000000              1.0000000
P    1   1.00
      0.3750000              1.0000000
****
B     0
S    6   1.00
   2068.8823000              0.0018663
    310.6495700              0.0142515
     70.6830330              0.0695516
     19.8610800              0.2325729
      6.2993048              0.4670787
      2.1270270              0.3634314
SP   3   1.00
      4.7279710             -0.1303938              0.0745976
      1.1903377             -0.1307889              0.3078467
      0.3594117              1.1309444              0.7434568
SP   1   1.00
      0.1267512              1.0000000              1.0000000
D    1   1.00
      0.8020000              1.0000000
D    1   1.00
      0.2005000              1.0000000
F    1   1.00
      0.5000000              1.0000000
****
C     0
S    6   1.00
   3047.5249000              0.0018347
    457.3695100              0.0140373
    103.9486900              0.0688426
     29.2101550              0.2321844
      9.2866630              0.4679413
      3.1639270              0.3623120
SP   3   1.00
      7.8682724             -0.1193324              0.0689991
      1.8812885             -0.1608542              0.3164240
      0.5442493              1.1434564              0.7443083
SP   1   1.00
      0.1687144              1.0000000              1.0000000
D    1   1.00
      1.2520000              1.0000000
D    1   1.00
      0.3130000              1.0000000
F    1   1.00
      0.8000000              1.0000000
****
N     0
S    6   1.00
   4173.5110000              0.0018348
    627.4579000              0.0139950
    142.9021000              0.0685870
     40.2343300              0.2322410
     12.8202100              0.4690700
      4.3904370              0.3604550
SP   3   1.00
     11.6263580             -0.1149610              0.0675800
      2.7162800             -0.1691180              0.3239070
      0.7722180              1.1458520              0.7408950
SP   1   1.00
      0.2120313              1.0000000              1.0000000
D    1   1.00
      1.8260000              1.0000000
D    1   1.00
      0.4565000              1.0000000
F    1   1.00
      1.0000000              1.0000000
****
O     0
S    6   1.00
   5484.6717000              0.0018311
    825.2349500              0.0139501
    188.0469600              0.0684451
     52.9645000              0.2327143
     16.8975700              0.4701930
      5.7996353              0.3585209
SP   3   1.00
     15.5396160             -0.1107775              0.0708743
      3.5999336             -0.1480263              0.3397528
      1.0137618              1.1307670              0.7271586
SP   1   1.00
      0.2700058              1.0000000              1.0000000
D    1   1.00
      2.5840000              1.0000000
D    1   1.00
      0.6460000              1.0000000
F    1   1.00
      1.4000000              1.0000000
****
F     0
S    6   1.00
   7001.7130900              0.0018196169
   1051.3660900              0.0139160796
    239.2856900              0.0684053245
     67.3974453              0.233185760
     21.5199573              0.471267439
      7.40310130             0.356618546
SP   3   1.00
     20.8479528             -0.108506975            0.0716287243
      4.80830834            -0.146451658            0.3459121030
      1.34406986             1.128688580            0.7224699570
SP   1   1.00
      0.358151393            1.0000000              1.0000000
D    1   1.00
      3.5000000              1.0000000
D    1   1.00
      0.8750000              1.0000000
F    1   1.00
      1.8500000              1.0000000
****
Al     0
S    6   1.00
  13983.1000000              0.00194267
   2098.7500000              0.0148599
    477.7050000              0.0728494
    134.3600000              0.2468300
     42.8709000              0.4872580
     14.5189000              0.3234960
SP   6   1.00
    239.6680000             -0.00292619             0.00460285
     57.4419000             -0.0374080              0.0331990
     18.2859000             -0.1144870              0.1362820
      6.5991400              0.1156350              0.3304760
      2.4904900              0.6125950              0.4491460
      0.9445400              0.3937990              0.2657040
SP   3   1.00
      1.2779000             -0.2276060             -0.0175130
      0.3975900              0.00144583             0.2445330
      0.1600950              1.0927900              0.8049340
SP   1   1.00
      0.0556577              1.0000000              1.0000000
D    1   1.00
      0.6500000              1.0000000
D    1   1.00
      0.1625000              1.0000000
F    1   1.00
      0.2500000              1.0000000
****
Si     0
S    6   1.00
  16115.9000000              0.00195948
   2425.5800000              0.01492880
    553.8670000              0.07284780
    156.3400000              0.24613000
     50.0683000              0.48591400
     17.0178000              0.32500200
SP   6   1.00
    292.7180000             -0.00278094             0.00443826
     69.8731000             -0.03571460             0.03266790
     22.3363000             -0.11498500             0.13472100
      8.1503900              0.09356340             0.32867800
      3.1345800              0.60301700             0.44964000
      1.2254300              0.41895900             0.26137200
SP   3   1.00
      1.7273800             -0.24463000            -0.01779510
      0.5729220              0.00431572             0.25353900
      0.2221920              1.09818000             0.80066900
SP   1   1.00
      0.0778369              1.00000000             1.00000000
D    1   1.00
      0.9000000              1.0000000
D    1   1.00
      0.2250000              1.0000000
F    1   1.00
      0.3200000              1.0000000
****
P     0
S    6   1.00
  19413.3000000              0.0018516
   2909.4200000              0.0142062
    661.3640000              0.0699995
    185.7590000              0.2400790
     59.1943000              0.4847620
     20.0310000              0.3352000
SP   6   1.00
    339.4780000             -0.00278217             0.00456462
     81.0101000             -0.0360499              0.03369360
     25.8780000             -0.1166310              0.13975500
      9.4522100              0.0968328              0.33936200
      3.6656600              0.6144180              0.45092100
      1.4674600              0.4037980              0.23858600
SP   3   1.00
      2.1562300             -0.2529230             -0.01776530
      0.7489970              0.0328517              0.27405800
      0.2831450              1.0812500              0.78542100
SP   1   1.00
      0.0998317              1.0000000              1.00000000
D    1   1.00
      1.1000000              1.0000000
D    1   1.00
      0.2750000              1.0000000
F    1   1.00
      0.4500000              1.0000000
****
S     0
S    6   1.00
  21917.1000000              0.0018690
   3301.4900000              0.0142300
    754.1460000              0.0696960
    212.7110000              0.2384870
     67.9896000              0.4833070
     23.0515000              0.3380740
SP   6   1.00
    423.7350000             -0.0023767              0.0040610
    100.7100000             -0.0316930              0.0306810
     32.1599000             -0.1133170              0.1304520
     11.8079000              0.0560900              0.3272050
      4.6311000              0.5922550              0.4528510
      1.8702500              0.4550060              0.2560420
SP   3   1.00
      2.6158400             -0.2503740             -0.0145110
      0.9221670              0.0669570              0.3102630
      0.3412870              1.0545100              0.7544830
SP   1   1.00
      0.1171670              1.0000000              1.0000000
D    1   1.00
      1.3000000              1.0000000
D    1   1.00
      0.3250000              1.0000000
F    1   1.00
      0.5500000              1.0000000
****
Cl     0
S    6   1.00
  25180.1000000              0.0018330
   3780.3500000              0.0140340
    860.4740000              0.0690970
    242.1450000              0.2374520
     77.3349000              0.4830340
     26.2470000              0.3398560
SP   6   1.00
    491.7650000             -0.0022974              0.0039894
    116.9840000             -0.0307140              0.0303180
     37.4153000             -0.1125280              0.1298800
     13.7834000              0.0450160              0.3279510
      5.4521500              0.5893530              0.4535270
      2.2258800              0.4652060              0.2521540
SP   3   1.00
      3.1864900             -0.2518300             -0.0142990
      1.1442700              0.0615890              0.3235720
      0.4203770              1.0601800              0.7435070
SP   1   1.00
      0.1426570              1.0000000              1.0000000
D    1   1.00
      1.5000000              1.0000000
D    1   1.00
      0.3750000              1.0000000
F    1   1.00
      0.7000000              1.0000000
****
}

set {
reference uhf
freeze_core true
e_convergence 10
d_convergence 10
dft_spherical_points 1202
dft_radial_points 99
}

e = energy('b3lyp')

print_out('Grab this energy {0}'.format(e))
--------------------------------------------------------------------------

    Molecular point group: c1

    Geometry (in Bohr), charge = 0, multiplicity = 2:

       Center              X                  Y                   Z               Mass
    ------------   -----------------  -----------------  -----------------  -----------------
         C           -0.323340287766    -0.001962385080     0.000021410477    12.000000000000
         C            0.061008155134    -1.400387283380    -2.425109268223    12.000000000000
         C            0.061817438934     2.803480658320    -0.000934644523    12.000000000000
         C            0.060475065434    -1.401684251880     2.425481847677    12.000000000000
         H            2.084855306134    -1.639815317180    -2.849670678023     1.007825032230
         H           -0.767978252766    -0.388242109280    -4.019519415623     1.007825032230
         H           -0.763799336566    -3.296557496480    -2.347238039023     1.007825032230
         H            2.089368494134     3.287748541520    -0.003043621823     1.007825032230
         H           -0.767434648766     3.684509027720     1.679104632277     1.007825032230
         H           -0.761027943466     3.682693072620    -1.673413836923     1.007825032230
         H            2.086440795634    -1.642834709380     2.848819459877     1.007825032230
         H           -0.761207384666    -3.292782330580     2.349572266177     1.007825032230
         H           -0.771789167266    -0.388131082880     4.021826714677     1.007825032230

  Charge       = 0
  Multiplicity = 2
  Basis Set: ANONYMOUSA479F8C4
    Blend: 6-31G_2DFP_
  Basis Set: (ANONYMOUSA479F8C4 AUX)
    Blend: DEF2-UNIVERSAL-JKFIT

    Orbital Energies [Eh]
    ---------------------

    Alpha Occupied:

       1A    -10.180342     2A    -10.167233     3A    -10.166923
       4A    -10.166889     5A     -0.797768     6A     -0.686342
       7A     -0.686033     8A     -0.530778     9A     -0.441127
      10A     -0.434871    11A     -0.434469    12A     -0.382649
      13A     -0.382549    14A     -0.363611    15A     -0.338217
      16A     -0.337778    17A     -0.168961

    Alpha Virtual:

      18A      0.076070    19A      0.134024    20A      0.134284
      21A      0.142421    22A      0.142832    23A      0.154882
      24A      0.178685    25A      0.178869    26A      0.203547
      27A      0.214803    28A      0.275634    29A      0.276338
      30A      0.398971    31A      0.399473    32A      0.403356
      33A      0.423932    34A      0.424264    35A      0.456594
      36A      0.495319    37A      0.495461    38A      0.512161
      39A      0.513979    40A      0.578615    41A      0.579013
      42A      0.591368    43A      0.591900    44A      0.602573
      45A      0.624717    46A      0.631764    47A      0.635985
      48A      0.636570    49A      0.663120    50A      0.663706
      51A      0.683664    52A      0.684058    53A      0.734995
      54A      0.825154    55A      0.825659    56A      0.853916
      57A      0.914776    58A      0.915276    59A      0.944122
      60A      0.944607    61A      0.961206    62A      0.961384
      63A      1.003457    64A      1.127821    65A      1.128382
      66A      1.142210    67A      1.163150    68A      1.163416
      69A      1.223325    70A      1.274179    71A      1.274793
      72A      1.279363    73A      1.324105    74A      1.324597
      75A      1.355993    76A      1.365629    77A      1.366469
      78A      1.392437    79A      1.403723    80A      1.404375
      81A      1.416370    82A      1.417856    83A      1.427909
      84A      1.491497    85A      1.499075    86A      1.542699
      87A      1.542974    88A      1.574140    89A      1.574756
      90A      1.669837    91A      1.738655    92A      1.740174
      93A      1.768319    94A      1.830500    95A      1.832271
      96A      1.971755    97A      2.017497    98A      2.019066
      99A      2.019807   100A      2.051551   101A      2.053764
     102A      2.738296   103A      2.738667   104A      2.790929
     105A      2.811421   106A      2.889450   107A      2.890406
     108A      2.894991   109A      2.929328   110A      2.929671
     111A      2.958961   112A      2.964120   113A      2.964672
     114A      3.034009   115A      3.070620   116A      3.071889
     117A      3.084432   118A      3.168355   119A      3.169181
     120A      3.180617   121A      3.285145   122A      3.285477
     123A      3.326576   124A      3.327746   125A      3.375628
     126A      3.489805   127A      3.490521   128A      3.514006
     129A      3.525315   130A      3.567467   131A      3.569327
     132A      3.575124   133A      3.665868   134A      3.666898
     135A      3.679664   136A      3.693712   137A      3.694560
     138A      3.775454   139A      3.778092   140A      3.789178
     141A      3.911466   142A      3.912990   143A      4.034439
     144A      4.110169   145A      4.112498   146A      4.147508
     147A      4.148654   148A      4.173345   149A      4.201888
     150A      4.202810   151A      4.204027   152A      4.210986
     153A      4.315128   154A      4.316804   155A      4.358980
     156A      4.423708   157A      4.425200   158A      4.443458
     159A      4.515543   160A      4.518128   161A      4.577583
     162A      4.578932   163A      4.617545   164A      4.709429
     165A      4.773484   166A      4.775775   167A      4.836921
     168A      4.962850   169A      5.002259   170A      5.003675
     171A      5.227562   172A      5.246846   173A      5.247199
     174A      5.353933   175A      5.357118   176A      5.479414

    Beta Occupied:

       1A    -10.167989     2A    -10.167677     3A    -10.167657
       4A    -10.166519     5A     -0.781093     6A     -0.684135
       7A     -0.683846     8A     -0.511749     9A     -0.431245
      10A     -0.430839    11A     -0.421821    12A     -0.376723
      13A     -0.376647    14A     -0.362595    15A     -0.333338
      16A     -0.332903

    Beta Virtual:

      17A     -0.025742    18A      0.077079    19A      0.134890
      20A      0.135199    21A      0.144264    22A      0.144731
      23A      0.163339    24A      0.182357    25A      0.182540
      26A      0.215033    27A      0.218929    28A      0.281993
      29A      0.282675    30A      0.400144    31A      0.400648
      32A      0.419793    33A      0.426740    34A      0.427078
      35A      0.468503    36A      0.497580    37A      0.497721
      38A      0.513896    39A      0.556323    40A      0.584156
      41A      0.584574    42A      0.597549    43A      0.598075
      44A      0.609997    45A      0.628096    46A      0.631924
      47A      0.639274    48A      0.639848    49A      0.666703
      50A      0.667251    51A      0.686322    52A      0.686670
      53A      0.757517    54A      0.830336    55A      0.830814
      56A      0.855269    57A      0.922762    58A      0.923233
      59A      0.945959    60A      0.953534    61A      0.966485
      62A      0.966721    63A      1.008697    64A      1.131842
      65A      1.132420    66A      1.155583    67A      1.168276
      68A      1.168438    69A      1.232297    70A      1.279757
      71A      1.280404    72A      1.285122    73A      1.329102
      74A      1.329579    75A      1.365408    76A      1.370944
      77A      1.371640    78A      1.393497    79A      1.407158
      80A      1.407869    81A      1.421467    82A      1.422857
      83A      1.428181    84A      1.492547    85A      1.509518
      86A      1.547130    87A      1.547361    88A      1.582039
      89A      1.582597    90A      1.674684    91A      1.744400
      92A      1.745956    93A      1.779097    94A      1.834348
      95A      1.836134    96A      1.972616    97A      2.024842
      98A      2.025996    99A      2.039693   100A      2.058298
     101A      2.060465   102A      2.746612   103A      2.747023
     104A      2.811834   105A      2.816063   106A      2.902216
     107A      2.903057   108A      2.924638   109A      2.931810
     110A      2.932168   111A      2.960037   112A      2.968677
     113A      2.969192   114A      3.041943   115A      3.080475
     116A      3.081731   117A      3.086374   118A      3.184106
     119A      3.184859   120A      3.188371   121A      3.289933
     122A      3.290287   123A      3.330363   124A      3.331567
     125A      3.383447   126A      3.492532   127A      3.493255
     128A      3.512374   129A      3.528362   130A      3.574972
     131A      3.580794   132A      3.582684   133A      3.670784
     134A      3.671496   135A      3.692951   136A      3.725569
     137A      3.725955   138A      3.780028   139A      3.782601
     140A      3.817691   141A      3.921258   142A      3.922832
     143A      4.045327   144A      4.116880   145A      4.119423
     146A      4.154614   147A      4.155982   148A      4.187379
     149A      4.207944   150A      4.209921   151A      4.210693
     152A      4.215474   153A      4.322582   154A      4.324234
     155A      4.362342   156A      4.431943   157A      4.433386
     158A      4.446350   159A      4.523333   160A      4.525916
     161A      4.588176   162A      4.589538   163A      4.624742
     164A      4.719773   165A      4.780483   166A      4.782684
     167A      4.839838   168A      4.967644   169A      5.006284
     170A      5.007729   171A      5.233168   172A      5.248661
     173A      5.249066   174A      5.360406   175A      5.363600
     176A      5.481737

    Final Occupation by Irrep:
              A
    DOCC [    16 ]
    SOCC [     1 ]

  @DF-UKS Final Energy:  -157.81305630410509

   => Energetics <=

    Nuclear Repulsion Energy =            125.3946717925152399
    One-Electron Energy =                -458.7489699858352878
    Two-Electron Energy =                 195.8483897366508302
    DFT Exchange-Correlation Energy =     -20.3071478474358713
    Empirical Dispersion Energy =           0.0000000000000000
    VV10 Nonlocal Energy =                  0.0000000000000000
    Total Energy =                       -157.8130563041050891

  UHF NO Occupations:
  HONO-2 :   15  A 1.9996009
  HONO-1 :   16  A 1.9989805
  HONO-0 :   17  A 1.0000000
  LUNO+0 :   18  A 0.0010195
  LUNO+1 :   19  A 0.0003991
  LUNO+2 :   20  A 0.0001981
  LUNO+3 :   21  A 0.0001970

Computation Completed

Properties will be evaluated at   0.000000,   0.000000,   0.000000 [a0]

Properties computed using the SCF density matrix

  Nuclear Dipole Moment: [e a0]
     X:     0.8272      Y:     0.0033      Z:     0.0032

  Electronic Dipole Moment: [e a0]
     X:    -0.7493      Y:    -0.0032      Z:    -0.0049

  Dipole Moment: [e a0]
     X:     0.0779      Y:     0.0000      Z:    -0.0017     Total:     0.0779

  Dipole Moment: [D]
     X:     0.1980      Y:     0.0001      Z:    -0.0044     Total:     0.1981

*** tstop() called on n089 at Fri Nov  5 14:37:10 2021
Module time:
	user time   =     505.12 seconds =       8.42 minutes
	system time =       4.83 seconds =       0.08 minutes
	total time  =        128 seconds =       2.13 minutes
Total time:
	user time   =     505.12 seconds =       8.42 minutes
	system time =       4.83 seconds =       0.08 minutes
	total time  =        128 seconds =       2.13 minutes
Grab this energy -157.8130563041051
    Psi4 stopped on: Friday, 05 November 2021 02:37PM
    Psi4 wall time for execution: 0:02:08.21

*** Psi4 exiting successfully. Buy a developer a beer!
