                               Psi4 1.4a2.dev629

  ==> Input File <==

--------------------------------------------------------------------------
import os
memory 14 GB

molecule {
 C   -0.3233281806    0.0002448344   -0.0000000000
 C    0.0618777610   -1.4017780555   -2.4276837268
 C    0.0600949401    2.8035223083    0.0000000000
 C    0.0618777610   -1.4017780555    2.4276837268
 H    2.0886098110   -1.6467669258   -2.8488463292
 H   -0.7638661324   -0.3860664079   -4.0228288981
 H   -0.7657033967   -3.2911497779   -2.3484176461
 H    2.0835937592    3.2815196859    0.0000000000
 H   -0.7674022406    3.6831055960    1.6767161337
 H   -0.7674022406    3.6831055960   -1.6767161337
 H    2.0886098110   -1.6467669258    2.8488463292
 H   -0.7657033967   -3.2911497779    2.3484176461
 H   -0.7638661324   -0.3860664079    4.0228288981
units bohr
0 2
}

basis {

assign 6-31g_2dfp_

[ 6-31g_2dfp_ ]

spherical

!----------------------------------------------------------------------
! Basis Set Exchange
! Version v0.8.13
! https://www.basissetexchange.org
!----------------------------------------------------------------------
!   Basis set: 6-31G(2df,p)
! Description: 6-31G(2df,p)
!        Role: orbital
!     Version: 0  (Data from the original Basis Set Exchange)
!----------------------------------------------------------------------

****
H     0
S    3   1.00
     18.7311370              0.03349460
      2.8253937              0.23472695
      0.6401217              0.81375733
S    1   1.00
      0.1612778              1.00000000
P    1   1.00
      1.5000000              1.0000000
P    1   1.00
      0.3750000              1.0000000
****
B     0
S    6   1.00
   2068.8823000              0.0018663
    310.6495700              0.0142515
     70.6830330              0.0695516
     19.8610800              0.2325729
      6.2993048              0.4670787
      2.1270270              0.3634314
SP   3   1.00
      4.7279710             -0.1303938              0.0745976
      1.1903377             -0.1307889              0.3078467
      0.3594117              1.1309444              0.7434568
SP   1   1.00
      0.1267512              1.0000000              1.0000000
D    1   1.00
      0.8020000              1.0000000
D    1   1.00
      0.2005000              1.0000000
F    1   1.00
      0.5000000              1.0000000
****
C     0
S    6   1.00
   3047.5249000              0.0018347
    457.3695100              0.0140373
    103.9486900              0.0688426
     29.2101550              0.2321844
      9.2866630              0.4679413
      3.1639270              0.3623120
SP   3   1.00
      7.8682724             -0.1193324              0.0689991
      1.8812885             -0.1608542              0.3164240
      0.5442493              1.1434564              0.7443083
SP   1   1.00
      0.1687144              1.0000000              1.0000000
D    1   1.00
      1.2520000              1.0000000
D    1   1.00
      0.3130000              1.0000000
F    1   1.00
      0.8000000              1.0000000
****
N     0
S    6   1.00
   4173.5110000              0.0018348
    627.4579000              0.0139950
    142.9021000              0.0685870
     40.2343300              0.2322410
     12.8202100              0.4690700
      4.3904370              0.3604550
SP   3   1.00
     11.6263580             -0.1149610              0.0675800
      2.7162800             -0.1691180              0.3239070
      0.7722180              1.1458520              0.7408950
SP   1   1.00
      0.2120313              1.0000000              1.0000000
D    1   1.00
      1.8260000              1.0000000
D    1   1.00
      0.4565000              1.0000000
F    1   1.00
      1.0000000              1.0000000
****
O     0
S    6   1.00
   5484.6717000              0.0018311
    825.2349500              0.0139501
    188.0469600              0.0684451
     52.9645000              0.2327143
     16.8975700              0.4701930
      5.7996353              0.3585209
SP   3   1.00
     15.5396160             -0.1107775              0.0708743
      3.5999336             -0.1480263              0.3397528
      1.0137618              1.1307670              0.7271586
SP   1   1.00
      0.2700058              1.0000000              1.0000000
D    1   1.00
      2.5840000              1.0000000
D    1   1.00
      0.6460000              1.0000000
F    1   1.00
      1.4000000              1.0000000
****
F     0
S    6   1.00
   7001.7130900              0.0018196169
   1051.3660900              0.0139160796
    239.2856900              0.0684053245
     67.3974453              0.233185760
     21.5199573              0.471267439
      7.40310130             0.356618546
SP   3   1.00
     20.8479528             -0.108506975            0.0716287243
      4.80830834            -0.146451658            0.3459121030
      1.34406986             1.128688580            0.7224699570
SP   1   1.00
      0.358151393            1.0000000              1.0000000
D    1   1.00
      3.5000000              1.0000000
D    1   1.00
      0.8750000              1.0000000
F    1   1.00
      1.8500000              1.0000000
****
Al     0
S    6   1.00
  13983.1000000              0.00194267
   2098.7500000              0.0148599
    477.7050000              0.0728494
    134.3600000              0.2468300
     42.8709000              0.4872580
     14.5189000              0.3234960
SP   6   1.00
    239.6680000             -0.00292619             0.00460285
     57.4419000             -0.0374080              0.0331990
     18.2859000             -0.1144870              0.1362820
      6.5991400              0.1156350              0.3304760
      2.4904900              0.6125950              0.4491460
      0.9445400              0.3937990              0.2657040
SP   3   1.00
      1.2779000             -0.2276060             -0.0175130
      0.3975900              0.00144583             0.2445330
      0.1600950              1.0927900              0.8049340
SP   1   1.00
      0.0556577              1.0000000              1.0000000
D    1   1.00
      0.6500000              1.0000000
D    1   1.00
      0.1625000              1.0000000
F    1   1.00
      0.2500000              1.0000000
****
Si     0
S    6   1.00
  16115.9000000              0.00195948
   2425.5800000              0.01492880
    553.8670000              0.07284780
    156.3400000              0.24613000
     50.0683000              0.48591400
     17.0178000              0.32500200
SP   6   1.00
    292.7180000             -0.00278094             0.00443826
     69.8731000             -0.03571460             0.03266790
     22.3363000             -0.11498500             0.13472100
      8.1503900              0.09356340             0.32867800
      3.1345800              0.60301700             0.44964000
      1.2254300              0.41895900             0.26137200
SP   3   1.00
      1.7273800             -0.24463000            -0.01779510
      0.5729220              0.00431572             0.25353900
      0.2221920              1.09818000             0.80066900
SP   1   1.00
      0.0778369              1.00000000             1.00000000
D    1   1.00
      0.9000000              1.0000000
D    1   1.00
      0.2250000              1.0000000
F    1   1.00
      0.3200000              1.0000000
****
P     0
S    6   1.00
  19413.3000000              0.0018516
   2909.4200000              0.0142062
    661.3640000              0.0699995
    185.7590000              0.2400790
     59.1943000              0.4847620
     20.0310000              0.3352000
SP   6   1.00
    339.4780000             -0.00278217             0.00456462
     81.0101000             -0.0360499              0.03369360
     25.8780000             -0.1166310              0.13975500
      9.4522100              0.0968328              0.33936200
      3.6656600              0.6144180              0.45092100
      1.4674600              0.4037980              0.23858600
SP   3   1.00
      2.1562300             -0.2529230             -0.01776530
      0.7489970              0.0328517              0.27405800
      0.2831450              1.0812500              0.78542100
SP   1   1.00
      0.0998317              1.0000000              1.00000000
D    1   1.00
      1.1000000              1.0000000
D    1   1.00
      0.2750000              1.0000000
F    1   1.00
      0.4500000              1.0000000
****
S     0
S    6   1.00
  21917.1000000              0.0018690
   3301.4900000              0.0142300
    754.1460000              0.0696960
    212.7110000              0.2384870
     67.9896000              0.4833070
     23.0515000              0.3380740
SP   6   1.00
    423.7350000             -0.0023767              0.0040610
    100.7100000             -0.0316930              0.0306810
     32.1599000             -0.1133170              0.1304520
     11.8079000              0.0560900              0.3272050
      4.6311000              0.5922550              0.4528510
      1.8702500              0.4550060              0.2560420
SP   3   1.00
      2.6158400             -0.2503740             -0.0145110
      0.9221670              0.0669570              0.3102630
      0.3412870              1.0545100              0.7544830
SP   1   1.00
      0.1171670              1.0000000              1.0000000
D    1   1.00
      1.3000000              1.0000000
D    1   1.00
      0.3250000              1.0000000
F    1   1.00
      0.5500000              1.0000000
****
Cl     0
S    6   1.00
  25180.1000000              0.0018330
   3780.3500000              0.0140340
    860.4740000              0.0690970
    242.1450000              0.2374520
     77.3349000              0.4830340
     26.2470000              0.3398560
SP   6   1.00
    491.7650000             -0.0022974              0.0039894
    116.9840000             -0.0307140              0.0303180
     37.4153000             -0.1125280              0.1298800
     13.7834000              0.0450160              0.3279510
      5.4521500              0.5893530              0.4535270
      2.2258800              0.4652060              0.2521540
SP   3   1.00
      3.1864900             -0.2518300             -0.0142990
      1.1442700              0.0615890              0.3235720
      0.4203770              1.0601800              0.7435070
SP   1   1.00
      0.1426570              1.0000000              1.0000000
D    1   1.00
      1.5000000              1.0000000
D    1   1.00
      0.3750000              1.0000000
F    1   1.00
      0.7000000              1.0000000
****
}

set {
reference uhf
freeze_core true
e_convergence 10
d_convergence 10
dft_spherical_points 1202
dft_radial_points 99
}

e = energy('b3lyp')

print_out('Grab this energy {0}'.format(e))
--------------------------------------------------------------------------

    Molecular point group: cs

    Geometry (in Bohr), charge = 0, multiplicity = 2:

       Center              X                  Y                   Z               Mass
    ------------   -----------------  -----------------  -----------------  -----------------
         C           -0.323436477148     0.000204617536     0.000000000000    12.000000000000
         C            0.061769464452    -1.401818272364    -2.427683726800    12.000000000000
         C            0.059986643552     2.803482091436     0.000000000000    12.000000000000
         C            0.061769464452    -1.401818272364     2.427683726800    12.000000000000
         H            2.088501514452    -1.646807142664    -2.848846329200     1.007825032230
         H           -0.763974428948    -0.386106624764    -4.022828898100     1.007825032230
         H           -0.765811693248    -3.291189994764    -2.348417646100     1.007825032230
         H            2.083485462652     3.281479469036     0.000000000000     1.007825032230
         H           -0.767510537148     3.683065379136     1.676716133700     1.007825032230
         H           -0.767510537148     3.683065379136    -1.676716133700     1.007825032230
         H            2.088501514452    -1.646807142664     2.848846329200     1.007825032230
         H           -0.765811693248    -3.291189994764     2.348417646100     1.007825032230
         H           -0.763974428948    -0.386106624764     4.022828898100     1.007825032230

  Charge       = 0
  Multiplicity = 2
  Basis Set: ANONYMOUS194AA54A
    Blend: 6-31G_2DFP_
  Basis Set: (ANONYMOUS194AA54A AUX)
    Blend: DEF2-UNIVERSAL-JKFIT

    Orbital Energies [Eh]
    ---------------------

    Alpha Occupied:

       1Ap   -10.180394     2Ap   -10.167003     1App  -10.166961
       3Ap   -10.166924     4Ap    -0.797510     5Ap    -0.686208
       2App   -0.686148     6Ap    -0.530609     7Ap    -0.441115
       8Ap    -0.434690     3App   -0.434519     9Ap    -0.382960
       4App   -0.382511     5App   -0.363812    10Ap    -0.337992
       6App   -0.337686    11Ap    -0.168940

    Alpha Virtual:

      12Ap     0.076081     7App    0.134166    13Ap     0.134261
       8App    0.142555    14Ap     0.142967    15Ap     0.154775
       9App    0.178809    16Ap     0.179075    17Ap     0.203259
      10App    0.214926    11App    0.275721    18Ap     0.275765
      19Ap     0.399106    12App    0.399363    20Ap     0.403435
      21Ap     0.424049    13App    0.424253    22Ap     0.456414
      23Ap     0.495386    14App    0.495411    15App    0.512216
      24Ap     0.514039    25Ap     0.578715    16App    0.578989
      17App    0.591478    26Ap     0.591971    27Ap     0.602646
      28Ap     0.624883    18App    0.631976    19App    0.636000
      29Ap     0.636414    30Ap     0.663259    20App    0.663337
      31Ap     0.683752    21App    0.683980    32Ap     0.735124
      22App    0.825326    33Ap     0.825447    23App    0.853779
      24App    0.914747    34Ap     0.915385    25App    0.944063
      35Ap     0.944301    26App    0.961292    36Ap     0.961447
      37Ap     1.003621    38Ap     1.127620    27App    1.128447
      39Ap     1.141788    40Ap     1.163727    28App    1.164039
      41Ap     1.222905    42Ap     1.274246    29App    1.274464
      43Ap     1.279206    30App    1.324081    44Ap     1.324228
      45Ap     1.355640    31App    1.365910    46Ap     1.365933
      32App    1.392937    33App    1.404280    47Ap     1.405263
      34App    1.416762    48Ap     1.417460    35App    1.428182
      36App    1.490979    49Ap     1.499642    37App    1.542674
      50Ap     1.542674    38App    1.573863    51Ap     1.574842
      52Ap     1.670617    39App    1.738820    53Ap     1.738983
      54Ap     1.768355    55Ap     1.831413    40App    1.832268
      41App    1.971128    42App    2.018215    56Ap     2.018377
      57Ap     2.018523    43App    2.051758    58Ap     2.052680
      44App    2.738298    59Ap     2.738330    60Ap     2.790700
      45App    2.811342    61Ap     2.889651    46App    2.890014
      62Ap     2.894570    47App    2.929342    63Ap     2.929956
      48App    2.959039    64Ap     2.964213    49App    2.964605
      65Ap     3.033830    50App    3.070686    66Ap     3.071987
      51App    3.083949    67Ap     3.168449    52App    3.168914
      68Ap     3.179984    69Ap     3.285526    53App    3.285765
      70Ap     3.326037    54App    3.327800    71Ap     3.375705
      55App    3.488999    72Ap     3.491141    56App    3.513854
      73Ap     3.524984    74Ap     3.568077    57App    3.568078
      58App    3.575425    59App    3.666743    75Ap     3.667545
      76Ap     3.680240    60App    3.693573    77Ap     3.694901
      78Ap     3.776668    61App    3.776816    79Ap     3.789461
      80Ap     3.911001    62App    3.911255    81Ap     4.033897
      63App    4.111516    82Ap     4.111767    64App    4.148102
      83Ap     4.148147    84Ap     4.172570    85Ap     4.201323
      86Ap     4.202523    65App    4.202757    66App    4.210483
      67App    4.315876    87Ap     4.316254    68App    4.359611
      69App    4.425587    88Ap     4.425721    70App    4.445372
      71App    4.515900    89Ap     4.517088    90Ap     4.577551
      72App    4.577564    91Ap     4.617193    92Ap     4.708118
      73App    4.773191    93Ap     4.774396    74App    4.835576
      94Ap     4.964181    75App    5.003281    95Ap     5.004398
      96Ap     5.228592    76App    5.246543    97Ap     5.247643
      98Ap     5.355298    77App    5.355399    78App    5.478131

    Beta Occupied:

       1Ap   -10.167753     1App  -10.167714     2Ap   -10.167695
       3Ap   -10.166560     4Ap    -0.780850     5Ap    -0.684011
       2App   -0.683961     6Ap    -0.511534     7Ap    -0.431092
       3App   -0.430897     8Ap    -0.421856     9Ap    -0.377067
       4App   -0.376606     5App   -0.362800    10Ap    -0.333088
       6App   -0.332806

    Beta Virtual:

      11Ap    -0.025573    12Ap     0.077086     7App    0.135054
      13Ap     0.135136     8App    0.144446    14Ap     0.144814
      15Ap     0.163192     9App    0.182460    16Ap     0.182737
      10App    0.215154    17Ap     0.218689    11App    0.282084
      18Ap     0.282138    19Ap     0.400272    12App    0.400521
      20Ap     0.419875    21Ap     0.426858    13App    0.427064
      22Ap     0.468245    23Ap     0.497640    14App    0.497665
      15App    0.513942    24Ap     0.556414    25Ap     0.584263
      16App    0.584546    17App    0.597662    26Ap     0.598168
      27Ap     0.610070    28Ap     0.628223    18App    0.632140
      19App    0.639258    29Ap     0.639681    30Ap     0.666812
      20App    0.666908    31Ap     0.686392    21App    0.686589
      32Ap     0.757725    22App    0.830482    33Ap     0.830597
      23App    0.855120    24App    0.922747    34Ap     0.923335
      25App    0.945894    35Ap     0.953214    26App    0.966600
      36Ap     0.966733    37Ap     1.008870    38Ap     1.131699
      27App    1.132436    39Ap     1.155124    40Ap     1.168784
      28App    1.169155    41Ap     1.231935    42Ap     1.279826
      29App    1.280016    43Ap     1.284983    30App    1.329043
      44Ap     1.329199    45Ap     1.365032    31App    1.371231
      46Ap     1.371234    32App    1.393985    33App    1.407709
      47Ap     1.408701    34App    1.421800    48Ap     1.422506
      35App    1.428475    36App    1.492014    49Ap     1.510061
      50Ap     1.546965    37App    1.547162    38App    1.581660
      51Ap     1.582820    52Ap     1.675470    39App    1.744586
      53Ap     1.744746    54Ap     1.779093    55Ap     1.835249
      40App    1.836094    41App    1.971981    42App    2.024578
      56Ap     2.024706    57Ap     2.039882    43App    2.058498
      58Ap     2.059449    44App    2.746652    59Ap     2.746709
      45App    2.811755    60Ap     2.815870    61Ap     2.902382
      46App    2.902767    62Ap     2.924212    47App    2.931803
      63Ap     2.932399    48App    2.960108    64Ap     2.968727
      49App    2.969113    65Ap     3.041723    50App    3.080510
      66Ap     3.081895    51App    3.085757    67Ap     3.184296
      52App    3.184760    68Ap     3.187685    69Ap     3.290239
      53App    3.290551    70Ap     3.329858    54App    3.331599
      71Ap     3.383492    55App    3.491743    72Ap     3.493840
      56App    3.512221    73Ap     3.528066    57App    3.575013
      58App    3.581539    74Ap     3.581697    59App    3.671694
      75Ap     3.672482    76Ap     3.693527    60App    3.725334
      77Ap     3.726173    78Ap     3.781167    61App    3.781252
      79Ap     3.818046    80Ap     3.920848    62App    3.921115
      81Ap     4.044864    63App    4.118262    82Ap     4.118463
      64App    4.155279    83Ap     4.155489    84Ap     4.186576
      85Ap     4.207820    65App    4.208697    86Ap     4.209894
      66App    4.214937    67App    4.323438    87Ap     4.323758
      68App    4.362950    69App    4.433728    88Ap     4.433883
      70App    4.448252    71App    4.523633    89Ap     4.524809
      90Ap     4.588117    72App    4.588162    91Ap     4.624365
      92Ap     4.718460    73App    4.780116    93Ap     4.781383
      74App    4.838496    94Ap     4.968954    75App    5.007313
      95Ap     5.008399    96Ap     5.234291    76App    5.248319
      97Ap     5.249415    98Ap     5.361757    77App    5.361844
      78App    5.480445

    Final Occupation by Irrep:
             Ap   App
    DOCC [    10,    6 ]
    SOCC [     1,    0 ]

  @DF-UKS Final Energy:  -157.81304292277761

   => Energetics <=

    Nuclear Repulsion Energy =            125.3666595123178098
    One-Electron Energy =                -458.6938709831403003
    Two-Electron Energy =                 195.8214279923671484
    DFT Exchange-Correlation Energy =     -20.3072594443222876
    Empirical Dispersion Energy =           0.0000000000000000
    VV10 Nonlocal Energy =                  0.0000000000000000
    Total Energy =                       -157.8130429227776119

  UHF NO Occupations:
  HONO-2 :    9 Ap 1.9996025
  HONO-1 :   10 Ap 1.9989782
  HONO-0 :   11 Ap 1.0000000
  LUNO+0 :   12 Ap 0.0010218
  LUNO+1 :   13 Ap 0.0003975
  LUNO+2 :    7App 0.0001985
  LUNO+3 :   14 Ap 0.0001982

Computation Completed

Properties will be evaluated at   0.000000,   0.000000,   0.000000 [a0]

Properties computed using the SCF density matrix

  Nuclear Dipole Moment: [e a0]
     X:     0.8264      Y:    -0.0003      Z:     0.0000

  Electronic Dipole Moment: [e a0]
     X:    -0.7484      Y:     0.0011      Z:     0.0000

  Dipole Moment: [e a0]
     X:     0.0780      Y:     0.0008      Z:     0.0000     Total:     0.0780

  Dipole Moment: [D]
     X:     0.1984      Y:     0.0019      Z:     0.0000     Total:     0.1984

*** tstop() called on n071 at Fri Nov  5 13:25:34 2021
Module time:
	user time   =     576.85 seconds =       9.61 minutes
	system time =      13.47 seconds =       0.22 minutes
	total time  =        148 seconds =       2.47 minutes
Total time:
	user time   =     576.85 seconds =       9.61 minutes
	system time =      13.47 seconds =       0.22 minutes
	total time  =        148 seconds =       2.47 minutes
Grab this energy -157.8130429227776
    Psi4 stopped on: Friday, 05 November 2021 01:25PM
    Psi4 wall time for execution: 0:02:28.64

*** Psi4 exiting successfully. Buy a developer a beer!
