                               Psi4 1.4a2.dev629

  ==> Input File <==

--------------------------------------------------------------------------
import os
memory 14 GB

molecule {
 C   -0.3247918814   -0.0000025487   -0.0002541736
 C    0.0602202462   -1.4011658232   -2.4261107499
 C    0.0618765660    2.8016629643    0.0007680533
 C    0.0637739572   -1.4004938125    2.4264833665
 H    2.0870628037   -1.6440130829   -2.8475302314
 H   -0.7649435690   -0.3880335845   -4.0255726614
 H   -0.7652431244   -3.2920523698   -2.3489930718
 H    2.0867493505    3.2881434388   -0.0002341277
 H   -0.7659442055    3.6802957346    1.6762776894
 H   -0.7656717487    3.6802045010   -1.6766107012
 H    2.0867154832   -1.6442216348    2.8474229377
 H   -0.7662193601   -3.2918437504    2.3490304586
 H   -0.7661923945   -0.3885043455    4.0253232115
units bohr
0 2
}

basis {

assign 6-31g_2dfp_

[ 6-31g_2dfp_ ]

spherical

!----------------------------------------------------------------------
! Basis Set Exchange
! Version v0.8.13
! https://www.basissetexchange.org
!----------------------------------------------------------------------
!   Basis set: 6-31G(2df,p)
! Description: 6-31G(2df,p)
!        Role: orbital
!     Version: 0  (Data from the original Basis Set Exchange)
!----------------------------------------------------------------------

****
H     0
S    3   1.00
     18.7311370              0.03349460
      2.8253937              0.23472695
      0.6401217              0.81375733
S    1   1.00
      0.1612778              1.00000000
P    1   1.00
      1.5000000              1.0000000
P    1   1.00
      0.3750000              1.0000000
****
B     0
S    6   1.00
   2068.8823000              0.0018663
    310.6495700              0.0142515
     70.6830330              0.0695516
     19.8610800              0.2325729
      6.2993048              0.4670787
      2.1270270              0.3634314
SP   3   1.00
      4.7279710             -0.1303938              0.0745976
      1.1903377             -0.1307889              0.3078467
      0.3594117              1.1309444              0.7434568
SP   1   1.00
      0.1267512              1.0000000              1.0000000
D    1   1.00
      0.8020000              1.0000000
D    1   1.00
      0.2005000              1.0000000
F    1   1.00
      0.5000000              1.0000000
****
C     0
S    6   1.00
   3047.5249000              0.0018347
    457.3695100              0.0140373
    103.9486900              0.0688426
     29.2101550              0.2321844
      9.2866630              0.4679413
      3.1639270              0.3623120
SP   3   1.00
      7.8682724             -0.1193324              0.0689991
      1.8812885             -0.1608542              0.3164240
      0.5442493              1.1434564              0.7443083
SP   1   1.00
      0.1687144              1.0000000              1.0000000
D    1   1.00
      1.2520000              1.0000000
D    1   1.00
      0.3130000              1.0000000
F    1   1.00
      0.8000000              1.0000000
****
N     0
S    6   1.00
   4173.5110000              0.0018348
    627.4579000              0.0139950
    142.9021000              0.0685870
     40.2343300              0.2322410
     12.8202100              0.4690700
      4.3904370              0.3604550
SP   3   1.00
     11.6263580             -0.1149610              0.0675800
      2.7162800             -0.1691180              0.3239070
      0.7722180              1.1458520              0.7408950
SP   1   1.00
      0.2120313              1.0000000              1.0000000
D    1   1.00
      1.8260000              1.0000000
D    1   1.00
      0.4565000              1.0000000
F    1   1.00
      1.0000000              1.0000000
****
O     0
S    6   1.00
   5484.6717000              0.0018311
    825.2349500              0.0139501
    188.0469600              0.0684451
     52.9645000              0.2327143
     16.8975700              0.4701930
      5.7996353              0.3585209
SP   3   1.00
     15.5396160             -0.1107775              0.0708743
      3.5999336             -0.1480263              0.3397528
      1.0137618              1.1307670              0.7271586
SP   1   1.00
      0.2700058              1.0000000              1.0000000
D    1   1.00
      2.5840000              1.0000000
D    1   1.00
      0.6460000              1.0000000
F    1   1.00
      1.4000000              1.0000000
****
F     0
S    6   1.00
   7001.7130900              0.0018196169
   1051.3660900              0.0139160796
    239.2856900              0.0684053245
     67.3974453              0.233185760
     21.5199573              0.471267439
      7.40310130             0.356618546
SP   3   1.00
     20.8479528             -0.108506975            0.0716287243
      4.80830834            -0.146451658            0.3459121030
      1.34406986             1.128688580            0.7224699570
SP   1   1.00
      0.358151393            1.0000000              1.0000000
D    1   1.00
      3.5000000              1.0000000
D    1   1.00
      0.8750000              1.0000000
F    1   1.00
      1.8500000              1.0000000
****
Al     0
S    6   1.00
  13983.1000000              0.00194267
   2098.7500000              0.0148599
    477.7050000              0.0728494
    134.3600000              0.2468300
     42.8709000              0.4872580
     14.5189000              0.3234960
SP   6   1.00
    239.6680000             -0.00292619             0.00460285
     57.4419000             -0.0374080              0.0331990
     18.2859000             -0.1144870              0.1362820
      6.5991400              0.1156350              0.3304760
      2.4904900              0.6125950              0.4491460
      0.9445400              0.3937990              0.2657040
SP   3   1.00
      1.2779000             -0.2276060             -0.0175130
      0.3975900              0.00144583             0.2445330
      0.1600950              1.0927900              0.8049340
SP   1   1.00
      0.0556577              1.0000000              1.0000000
D    1   1.00
      0.6500000              1.0000000
D    1   1.00
      0.1625000              1.0000000
F    1   1.00
      0.2500000              1.0000000
****
Si     0
S    6   1.00
  16115.9000000              0.00195948
   2425.5800000              0.01492880
    553.8670000              0.07284780
    156.3400000              0.24613000
     50.0683000              0.48591400
     17.0178000              0.32500200
SP   6   1.00
    292.7180000             -0.00278094             0.00443826
     69.8731000             -0.03571460             0.03266790
     22.3363000             -0.11498500             0.13472100
      8.1503900              0.09356340             0.32867800
      3.1345800              0.60301700             0.44964000
      1.2254300              0.41895900             0.26137200
SP   3   1.00
      1.7273800             -0.24463000            -0.01779510
      0.5729220              0.00431572             0.25353900
      0.2221920              1.09818000             0.80066900
SP   1   1.00
      0.0778369              1.00000000             1.00000000
D    1   1.00
      0.9000000              1.0000000
D    1   1.00
      0.2250000              1.0000000
F    1   1.00
      0.3200000              1.0000000
****
P     0
S    6   1.00
  19413.3000000              0.0018516
   2909.4200000              0.0142062
    661.3640000              0.0699995
    185.7590000              0.2400790
     59.1943000              0.4847620
     20.0310000              0.3352000
SP   6   1.00
    339.4780000             -0.00278217             0.00456462
     81.0101000             -0.0360499              0.03369360
     25.8780000             -0.1166310              0.13975500
      9.4522100              0.0968328              0.33936200
      3.6656600              0.6144180              0.45092100
      1.4674600              0.4037980              0.23858600
SP   3   1.00
      2.1562300             -0.2529230             -0.01776530
      0.7489970              0.0328517              0.27405800
      0.2831450              1.0812500              0.78542100
SP   1   1.00
      0.0998317              1.0000000              1.00000000
D    1   1.00
      1.1000000              1.0000000
D    1   1.00
      0.2750000              1.0000000
F    1   1.00
      0.4500000              1.0000000
****
S     0
S    6   1.00
  21917.1000000              0.0018690
   3301.4900000              0.0142300
    754.1460000              0.0696960
    212.7110000              0.2384870
     67.9896000              0.4833070
     23.0515000              0.3380740
SP   6   1.00
    423.7350000             -0.0023767              0.0040610
    100.7100000             -0.0316930              0.0306810
     32.1599000             -0.1133170              0.1304520
     11.8079000              0.0560900              0.3272050
      4.6311000              0.5922550              0.4528510
      1.8702500              0.4550060              0.2560420
SP   3   1.00
      2.6158400             -0.2503740             -0.0145110
      0.9221670              0.0669570              0.3102630
      0.3412870              1.0545100              0.7544830
SP   1   1.00
      0.1171670              1.0000000              1.0000000
D    1   1.00
      1.3000000              1.0000000
D    1   1.00
      0.3250000              1.0000000
F    1   1.00
      0.5500000              1.0000000
****
Cl     0
S    6   1.00
  25180.1000000              0.0018330
   3780.3500000              0.0140340
    860.4740000              0.0690970
    242.1450000              0.2374520
     77.3349000              0.4830340
     26.2470000              0.3398560
SP   6   1.00
    491.7650000             -0.0022974              0.0039894
    116.9840000             -0.0307140              0.0303180
     37.4153000             -0.1125280              0.1298800
     13.7834000              0.0450160              0.3279510
      5.4521500              0.5893530              0.4535270
      2.2258800              0.4652060              0.2521540
SP   3   1.00
      3.1864900             -0.2518300             -0.0142990
      1.1442700              0.0615890              0.3235720
      0.4203770              1.0601800              0.7435070
SP   1   1.00
      0.1426570              1.0000000              1.0000000
D    1   1.00
      1.5000000              1.0000000
D    1   1.00
      0.3750000              1.0000000
F    1   1.00
      0.7000000              1.0000000
****
}

set {
reference uhf
freeze_core true
e_convergence 10
d_convergence 10
dft_spherical_points 1202
dft_radial_points 99
}

e = energy('b3lyp')

print_out('Grab this energy {0}'.format(e))
--------------------------------------------------------------------------

    Molecular point group: c1

    Geometry (in Bohr), charge = 0, multiplicity = 2:

       Center              X                  Y                   Z               Mass
    ------------   -----------------  -----------------  -----------------  -----------------
         C           -0.325007384367    -0.000002269553    -0.000424919172    12.000000000000
         C            0.060004743233    -1.401165544053    -2.426281495472    12.000000000000
         C            0.061661063033     2.801663243447     0.000597307728    12.000000000000
         C            0.063558454233    -1.400493533353     2.426312620928    12.000000000000
         H            2.086847300733    -1.644012803753    -2.847700976972     1.007825032230
         H           -0.765159071967    -0.388033305353    -4.025743406972     1.007825032230
         H           -0.765458627367    -3.292052090653    -2.349163817372     1.007825032230
         H            2.086533847533     3.288143717947    -0.000404873272     1.007825032230
         H           -0.766159708467     3.680296013747     1.676106943828     1.007825032230
         H           -0.765887251667     3.680204780147    -1.676781446772     1.007825032230
         H            2.086499980233    -1.644221355653     2.847252192128     1.007825032230
         H           -0.766434863067    -3.291843471253     2.348859713028     1.007825032230
         H           -0.766407897467    -0.388504066353     4.025152465928     1.007825032230

  Charge       = 0
  Multiplicity = 2
  Basis Set: ANONYMOUS98ADCF77
    Blend: 6-31G_2DFP_
  Basis Set: (ANONYMOUS98ADCF77 AUX)
    Blend: DEF2-UNIVERSAL-JKFIT

    Orbital Energies [Eh]
    ---------------------

    Alpha Occupied:

       1A    -10.180407     2A    -10.167042     3A    -10.167012
       4A    -10.166966     5A     -0.797750     6A     -0.686202
       7A     -0.686136     8A     -0.530782     9A     -0.441182
      10A     -0.434708    11A     -0.434506    12A     -0.382857
      13A     -0.382555    14A     -0.363486    15A     -0.337991
      16A     -0.337822    17A     -0.169144

    Alpha Virtual:

      18A      0.076076    19A      0.134119    20A      0.134186
      21A      0.142542    22A      0.142667    23A      0.154959
      24A      0.178733    25A      0.178961    26A      0.203573
      27A      0.214754    28A      0.275758    29A      0.275868
      30A      0.399050    31A      0.399365    32A      0.403267
      33A      0.424021    34A      0.424117    35A      0.456686
      36A      0.495335    37A      0.495393    38A      0.512206
      39A      0.513880    40A      0.578860    41A      0.579032
      42A      0.591539    43A      0.591781    44A      0.602790
      45A      0.624680    46A      0.631715    47A      0.635982
      48A      0.636195    49A      0.663402    50A      0.663742
      51A      0.683593    52A      0.683891    53A      0.734798
      54A      0.825338    55A      0.825366    56A      0.853918
      57A      0.914941    58A      0.914983    59A      0.944175
      60A      0.944662    61A      0.961230    62A      0.961386
      63A      1.003454    64A      1.128102    65A      1.128312
      66A      1.142236    67A      1.163605    68A      1.163795
      69A      1.223161    70A      1.274284    71A      1.274568
      72A      1.279598    73A      1.323855    74A      1.324361
      75A      1.356223    76A      1.365373    77A      1.365986
      78A      1.392460    79A      1.403985    80A      1.404213
      81A      1.417052    82A      1.417647    83A      1.427961
      84A      1.491311    85A      1.499473    86A      1.542831
      87A      1.542922    88A      1.574008    89A      1.574318
      90A      1.669557    91A      1.738766    92A      1.739581
      93A      1.768377    94A      1.830813    95A      1.831204
      96A      1.971466    97A      2.017263    98A      2.018747
      99A      2.019973   100A      2.052657   101A      2.053398
     102A      2.738247   103A      2.738329   104A      2.791122
     105A      2.811396   106A      2.889435   107A      2.889980
     108A      2.895260   109A      2.929483   110A      2.929550
     111A      2.958928   112A      2.964159   113A      2.964369
     114A      3.034357   115A      3.070317   116A      3.070557
     117A      3.084284   118A      3.168779   119A      3.169024
     120A      3.180555   121A      3.286079   122A      3.286139
     123A      3.327361   124A      3.327681   125A      3.375785
     126A      3.489624   127A      3.490246   128A      3.513838
     129A      3.525789   130A      3.567991   131A      3.568208
     132A      3.575758   133A      3.665517   134A      3.666114
     135A      3.679428   136A      3.694167   137A      3.694195
     138A      3.776487   139A      3.776574   140A      3.787850
     141A      3.912120   142A      3.912280   143A      4.034144
     144A      4.111051   145A      4.111230   146A      4.148038
     147A      4.148154   148A      4.173190   149A      4.202207
     150A      4.203207   151A      4.203560   152A      4.210901
     153A      4.315723   154A      4.316582   155A      4.359467
     156A      4.424176   157A      4.424417   158A      4.443158
     159A      4.516088   160A      4.518198   161A      4.578191
     162A      4.578610   163A      4.617033   164A      4.709770
     165A      4.773928   166A      4.774944   167A      4.835712
     168A      4.962960   169A      5.002638   170A      5.003537
     171A      5.227945   172A      5.246680   173A      5.246722
     174A      5.354966   175A      5.355494   176A      5.478982

    Beta Occupied:

       1A    -10.167796     2A    -10.167765     3A    -10.167731
       4A    -10.166580     5A     -0.781080     6A     -0.684002
       7A     -0.683936     8A     -0.511744     9A     -0.431075
      10A     -0.430863    11A     -0.421909    12A     -0.376961
      13A     -0.376642    14A     -0.362469    15A     -0.333120
      16A     -0.332947

    Beta Virtual:

      17A     -0.025844    18A      0.077080    19A      0.135007
      20A      0.135057    21A      0.144420    22A      0.144536
      23A      0.163407    24A      0.182404    25A      0.182635
      26A      0.214984    27A      0.218934    28A      0.282121
      29A      0.282226    30A      0.400219    31A      0.400537
      32A      0.419685    33A      0.426832    34A      0.426933
      35A      0.468608    36A      0.497604    37A      0.497654
      38A      0.513937    39A      0.556225    40A      0.584401
      41A      0.584563    42A      0.597720    43A      0.597971
      44A      0.610188    45A      0.628078    46A      0.631872
      47A      0.639272    48A      0.639487    49A      0.666984
      50A      0.667293    51A      0.686220    52A      0.686523
      53A      0.757342    54A      0.830513    55A      0.830536
      56A      0.855267    57A      0.922924    58A      0.922963
      59A      0.946007    60A      0.953585    61A      0.966496
      62A      0.966665    63A      1.008713    64A      1.132100
      65A      1.132385    66A      1.155585    67A      1.168723
      68A      1.168818    69A      1.232130    70A      1.279893
      71A      1.280186    72A      1.285359    73A      1.328842
      74A      1.329369    75A      1.365614    76A      1.370611
      77A      1.371225    78A      1.393511    79A      1.407436
      80A      1.407693    81A      1.422097    82A      1.422660
      83A      1.428234    84A      1.492357    85A      1.509923
      86A      1.547258    87A      1.547308    88A      1.581935
      89A      1.582137    90A      1.674420    91A      1.744533
      92A      1.745334    93A      1.779136    94A      1.834660
      95A      1.835050    96A      1.972324    97A      2.025102
      98A      2.026376    99A      2.038683   100A      2.059417
     101A      2.060105   102A      2.746588   103A      2.746660
     104A      2.811816   105A      2.816239   106A      2.902177
     107A      2.902705   108A      2.924953   109A      2.931953
     110A      2.932013   111A      2.959990   112A      2.968718
     113A      2.968920   114A      3.042251   115A      3.080268
     116A      3.080495   117A      3.086105   118A      3.184451
     119A      3.184653   120A      3.188289   121A      3.290848
     122A      3.290889   123A      3.331160   124A      3.331508
     125A      3.383613   126A      3.492373   127A      3.492994
     128A      3.512206   129A      3.528844   130A      3.575619
     131A      3.581438   132A      3.581531   133A      3.670301
     134A      3.670782   135A      3.692721   136A      3.725672
     137A      3.725968   138A      3.781069   139A      3.781130
     140A      3.816387   141A      3.921884   142A      3.922075
     143A      4.045060   144A      4.117904   145A      4.117979
     146A      4.155214   147A      4.155419   148A      4.187212
     149A      4.209065   150A      4.209412   151A      4.210357
     152A      4.215351   153A      4.323159   154A      4.324067
     155A      4.362832   156A      4.432360   157A      4.432579
     158A      4.446043   159A      4.523866   160A      4.525966
     161A      4.588841   162A      4.589231   163A      4.624217
     164A      4.720140   165A      4.780915   166A      4.781893
     167A      4.838640   168A      4.967752   169A      5.006681
     170A      5.007545   171A      5.233662   172A      5.248464
     173A      5.248506   174A      5.361456   175A      5.361982
     176A      5.481310

    Final Occupation by Irrep:
              A
    DOCC [    16 ]
    SOCC [     1 ]

  @DF-UKS Final Energy:  -157.81306282690980

   => Energetics <=

    Nuclear Repulsion Energy =            125.3921870504402847
    One-Electron Energy =                -458.7442112714135192
    Two-Electron Energy =                 195.8460347212600823
    DFT Exchange-Correlation Energy =     -20.3070733271966368
    Empirical Dispersion Energy =           0.0000000000000000
    VV10 Nonlocal Energy =                  0.0000000000000000
    Total Energy =                       -157.8130628269097997

  UHF NO Occupations:
  HONO-2 :   15  A 1.9996024
  HONO-1 :   16  A 1.9989820
  HONO-0 :   17  A 1.0000000
  LUNO+0 :   18  A 0.0010180
  LUNO+1 :   19  A 0.0003976
  LUNO+2 :   20  A 0.0001978
  LUNO+3 :   21  A 0.0001975

Computation Completed

Properties will be evaluated at   0.000000,   0.000000,   0.000000 [a0]

Properties computed using the SCF density matrix

  Nuclear Dipole Moment: [e a0]
     X:     0.8257      Y:    -0.0000      Z:    -0.0012

  Electronic Dipole Moment: [e a0]
     X:    -0.7470      Y:     0.0000      Z:     0.0011

  Dipole Moment: [e a0]
     X:     0.0787      Y:     0.0000      Z:    -0.0001     Total:     0.0787

  Dipole Moment: [D]
     X:     0.2000      Y:     0.0000      Z:    -0.0003     Total:     0.2000

*** tstop() called on n082 at Fri Nov  5 11:28:53 2021
Module time:
	user time   =     496.12 seconds =       8.27 minutes
	system time =       4.49 seconds =       0.07 minutes
	total time  =        126 seconds =       2.10 minutes
Total time:
	user time   =     496.12 seconds =       8.27 minutes
	system time =       4.49 seconds =       0.07 minutes
	total time  =        126 seconds =       2.10 minutes
Grab this energy -157.8130628269098
    Psi4 stopped on: Friday, 05 November 2021 11:28AM
    Psi4 wall time for execution: 0:02:05.87

*** Psi4 exiting successfully. Buy a developer a beer!
