                               Psi4 1.4a2.dev629

  ==> Input File <==

--------------------------------------------------------------------------
import os
memory 14 GB

molecule {
 C   -0.3230380314   -0.0000017745    0.0010184753
 C    0.0603541028   -1.3975468399   -2.4224129110
 C    0.0608809955    2.7963138146   -0.0017992751
 C    0.0616485386   -1.3987615052    2.4209182672
 H    2.0867162863   -1.6410641231   -2.8414848442
 H   -0.7651297844   -0.3855948977   -4.0200436468
 H   -0.7651445163   -3.2888031081   -2.3437733250
 H    2.0865049022    3.2815073259    0.0007011147
 H   -0.7653322574    3.6741595072    1.6764020548
 H   -0.7656287872    3.6743405615   -1.6758314985
 H    2.0865740562   -1.6405376370    2.8419751258
 H   -0.7656623014   -3.2885259492    2.3441900138
 H   -0.7653510801   -0.3855096880    4.0201404491
units bohr
0 2
}

basis {

assign 6-31g_2dfp_

[ 6-31g_2dfp_ ]

spherical

!----------------------------------------------------------------------
! Basis Set Exchange
! Version v0.8.13
! https://www.basissetexchange.org
!----------------------------------------------------------------------
!   Basis set: 6-31G(2df,p)
! Description: 6-31G(2df,p)
!        Role: orbital
!     Version: 0  (Data from the original Basis Set Exchange)
!----------------------------------------------------------------------

****
H     0
S    3   1.00
     18.7311370              0.03349460
      2.8253937              0.23472695
      0.6401217              0.81375733
S    1   1.00
      0.1612778              1.00000000
P    1   1.00
      1.5000000              1.0000000
P    1   1.00
      0.3750000              1.0000000
****
B     0
S    6   1.00
   2068.8823000              0.0018663
    310.6495700              0.0142515
     70.6830330              0.0695516
     19.8610800              0.2325729
      6.2993048              0.4670787
      2.1270270              0.3634314
SP   3   1.00
      4.7279710             -0.1303938              0.0745976
      1.1903377             -0.1307889              0.3078467
      0.3594117              1.1309444              0.7434568
SP   1   1.00
      0.1267512              1.0000000              1.0000000
D    1   1.00
      0.8020000              1.0000000
D    1   1.00
      0.2005000              1.0000000
F    1   1.00
      0.5000000              1.0000000
****
C     0
S    6   1.00
   3047.5249000              0.0018347
    457.3695100              0.0140373
    103.9486900              0.0688426
     29.2101550              0.2321844
      9.2866630              0.4679413
      3.1639270              0.3623120
SP   3   1.00
      7.8682724             -0.1193324              0.0689991
      1.8812885             -0.1608542              0.3164240
      0.5442493              1.1434564              0.7443083
SP   1   1.00
      0.1687144              1.0000000              1.0000000
D    1   1.00
      1.2520000              1.0000000
D    1   1.00
      0.3130000              1.0000000
F    1   1.00
      0.8000000              1.0000000
****
N     0
S    6   1.00
   4173.5110000              0.0018348
    627.4579000              0.0139950
    142.9021000              0.0685870
     40.2343300              0.2322410
     12.8202100              0.4690700
      4.3904370              0.3604550
SP   3   1.00
     11.6263580             -0.1149610              0.0675800
      2.7162800             -0.1691180              0.3239070
      0.7722180              1.1458520              0.7408950
SP   1   1.00
      0.2120313              1.0000000              1.0000000
D    1   1.00
      1.8260000              1.0000000
D    1   1.00
      0.4565000              1.0000000
F    1   1.00
      1.0000000              1.0000000
****
O     0
S    6   1.00
   5484.6717000              0.0018311
    825.2349500              0.0139501
    188.0469600              0.0684451
     52.9645000              0.2327143
     16.8975700              0.4701930
      5.7996353              0.3585209
SP   3   1.00
     15.5396160             -0.1107775              0.0708743
      3.5999336             -0.1480263              0.3397528
      1.0137618              1.1307670              0.7271586
SP   1   1.00
      0.2700058              1.0000000              1.0000000
D    1   1.00
      2.5840000              1.0000000
D    1   1.00
      0.6460000              1.0000000
F    1   1.00
      1.4000000              1.0000000
****
F     0
S    6   1.00
   7001.7130900              0.0018196169
   1051.3660900              0.0139160796
    239.2856900              0.0684053245
     67.3974453              0.233185760
     21.5199573              0.471267439
      7.40310130             0.356618546
SP   3   1.00
     20.8479528             -0.108506975            0.0716287243
      4.80830834            -0.146451658            0.3459121030
      1.34406986             1.128688580            0.7224699570
SP   1   1.00
      0.358151393            1.0000000              1.0000000
D    1   1.00
      3.5000000              1.0000000
D    1   1.00
      0.8750000              1.0000000
F    1   1.00
      1.8500000              1.0000000
****
Al     0
S    6   1.00
  13983.1000000              0.00194267
   2098.7500000              0.0148599
    477.7050000              0.0728494
    134.3600000              0.2468300
     42.8709000              0.4872580
     14.5189000              0.3234960
SP   6   1.00
    239.6680000             -0.00292619             0.00460285
     57.4419000             -0.0374080              0.0331990
     18.2859000             -0.1144870              0.1362820
      6.5991400              0.1156350              0.3304760
      2.4904900              0.6125950              0.4491460
      0.9445400              0.3937990              0.2657040
SP   3   1.00
      1.2779000             -0.2276060             -0.0175130
      0.3975900              0.00144583             0.2445330
      0.1600950              1.0927900              0.8049340
SP   1   1.00
      0.0556577              1.0000000              1.0000000
D    1   1.00
      0.6500000              1.0000000
D    1   1.00
      0.1625000              1.0000000
F    1   1.00
      0.2500000              1.0000000
****
Si     0
S    6   1.00
  16115.9000000              0.00195948
   2425.5800000              0.01492880
    553.8670000              0.07284780
    156.3400000              0.24613000
     50.0683000              0.48591400
     17.0178000              0.32500200
SP   6   1.00
    292.7180000             -0.00278094             0.00443826
     69.8731000             -0.03571460             0.03266790
     22.3363000             -0.11498500             0.13472100
      8.1503900              0.09356340             0.32867800
      3.1345800              0.60301700             0.44964000
      1.2254300              0.41895900             0.26137200
SP   3   1.00
      1.7273800             -0.24463000            -0.01779510
      0.5729220              0.00431572             0.25353900
      0.2221920              1.09818000             0.80066900
SP   1   1.00
      0.0778369              1.00000000             1.00000000
D    1   1.00
      0.9000000              1.0000000
D    1   1.00
      0.2250000              1.0000000
F    1   1.00
      0.3200000              1.0000000
****
P     0
S    6   1.00
  19413.3000000              0.0018516
   2909.4200000              0.0142062
    661.3640000              0.0699995
    185.7590000              0.2400790
     59.1943000              0.4847620
     20.0310000              0.3352000
SP   6   1.00
    339.4780000             -0.00278217             0.00456462
     81.0101000             -0.0360499              0.03369360
     25.8780000             -0.1166310              0.13975500
      9.4522100              0.0968328              0.33936200
      3.6656600              0.6144180              0.45092100
      1.4674600              0.4037980              0.23858600
SP   3   1.00
      2.1562300             -0.2529230             -0.01776530
      0.7489970              0.0328517              0.27405800
      0.2831450              1.0812500              0.78542100
SP   1   1.00
      0.0998317              1.0000000              1.00000000
D    1   1.00
      1.1000000              1.0000000
D    1   1.00
      0.2750000              1.0000000
F    1   1.00
      0.4500000              1.0000000
****
S     0
S    6   1.00
  21917.1000000              0.0018690
   3301.4900000              0.0142300
    754.1460000              0.0696960
    212.7110000              0.2384870
     67.9896000              0.4833070
     23.0515000              0.3380740
SP   6   1.00
    423.7350000             -0.0023767              0.0040610
    100.7100000             -0.0316930              0.0306810
     32.1599000             -0.1133170              0.1304520
     11.8079000              0.0560900              0.3272050
      4.6311000              0.5922550              0.4528510
      1.8702500              0.4550060              0.2560420
SP   3   1.00
      2.6158400             -0.2503740             -0.0145110
      0.9221670              0.0669570              0.3102630
      0.3412870              1.0545100              0.7544830
SP   1   1.00
      0.1171670              1.0000000              1.0000000
D    1   1.00
      1.3000000              1.0000000
D    1   1.00
      0.3250000              1.0000000
F    1   1.00
      0.5500000              1.0000000
****
Cl     0
S    6   1.00
  25180.1000000              0.0018330
   3780.3500000              0.0140340
    860.4740000              0.0690970
    242.1450000              0.2374520
     77.3349000              0.4830340
     26.2470000              0.3398560
SP   6   1.00
    491.7650000             -0.0022974              0.0039894
    116.9840000             -0.0307140              0.0303180
     37.4153000             -0.1125280              0.1298800
     13.7834000              0.0450160              0.3279510
      5.4521500              0.5893530              0.4535270
      2.2258800              0.4652060              0.2521540
SP   3   1.00
      3.1864900             -0.2518300             -0.0142990
      1.1442700              0.0615890              0.3235720
      0.4203770              1.0601800              0.7435070
SP   1   1.00
      0.1426570              1.0000000              1.0000000
D    1   1.00
      1.5000000              1.0000000
D    1   1.00
      0.3750000              1.0000000
F    1   1.00
      0.7000000              1.0000000
****
}

set {
reference uhf
freeze_core true
e_convergence 10
d_convergence 10
dft_spherical_points 1202
dft_radial_points 99
}

e = energy('b3lyp')

print_out('Grab this energy {0}'.format(e))
--------------------------------------------------------------------------

    Molecular point group: c1

    Geometry (in Bohr), charge = 0, multiplicity = 2:

       Center              X                  Y                   Z               Mass
    ------------   -----------------  -----------------  -----------------  -----------------
         C           -0.323015995278    -0.000002056824     0.001456742125    12.000000000000
         C            0.060376138922    -1.397547122224    -2.421974644175    12.000000000000
         C            0.060903031622     2.796313532276    -0.001361008275    12.000000000000
         C            0.061670574722    -1.398761787524     2.421356534025    12.000000000000
         H            2.086738322422    -1.641064405424    -2.841046577375     1.007825032230
         H           -0.765107748278    -0.385595180024    -4.019605379975     1.007825032230
         H           -0.765122480178    -3.288803390424    -2.343335058175     1.007825032230
         H            2.086526938322     3.281507043576     0.001139381525     1.007825032230
         H           -0.765310221278     3.674159224876     1.676840321625     1.007825032230
         H           -0.765606751078     3.674340279176    -1.675393231675     1.007825032230
         H            2.086596092322    -1.640537919324     2.842413392625     1.007825032230
         H           -0.765640265278    -3.288526231524     2.344628280625     1.007825032230
         H           -0.765329043978    -0.385509970324     4.020578715925     1.007825032230

  Charge       = 0
  Multiplicity = 2
  Basis Set: ANONYMOUS32F8CE7C
    Blend: 6-31G_2DFP_
  Basis Set: (ANONYMOUS32F8CE7C AUX)
    Blend: DEF2-UNIVERSAL-JKFIT

    Orbital Energies [Eh]
    ---------------------

    Alpha Occupied:

       1A    -10.179568     2A    -10.166687     3A    -10.166659
       4A    -10.166614     5A     -0.798816     6A     -0.686568
       7A     -0.686409     8A     -0.530774     9A     -0.441722
      10A     -0.435160    11A     -0.435143    12A     -0.382712
      13A     -0.382636    14A     -0.363490    15A     -0.338481
      16A     -0.337893    17A     -0.168636

    Alpha Virtual:

      18A      0.076043    19A      0.134155    20A      0.134234
      21A      0.142769    22A      0.142894    23A      0.154942
      24A      0.178903    25A      0.179004    26A      0.204640
      27A      0.215149    28A      0.276381    29A      0.276631
      30A      0.399095    31A      0.399310    32A      0.403134
      33A      0.423823    34A      0.423827    35A      0.457176
      36A      0.495584    37A      0.495652    38A      0.512497
      39A      0.514381    40A      0.579456    41A      0.579538
      42A      0.592160    43A      0.592198    44A      0.603034
      45A      0.625166    46A      0.632124    47A      0.637065
      48A      0.637076    49A      0.663794    50A      0.663977
      51A      0.684296    52A      0.684321    53A      0.734788
      54A      0.825249    55A      0.825255    56A      0.854917
      57A      0.915650    58A      0.915861    59A      0.944023
      60A      0.945467    61A      0.962191    62A      0.962318
      63A      1.004583    64A      1.128989    65A      1.129023
      66A      1.142561    67A      1.164016    68A      1.164059
      69A      1.224231    70A      1.275219    71A      1.275571
      72A      1.279870    73A      1.324633    74A      1.324752
      75A      1.356164    76A      1.367650    77A      1.368122
      78A      1.393941    79A      1.403514    80A      1.404022
      81A      1.417238    82A      1.417740    83A      1.429325
      84A      1.492716    85A      1.499661    86A      1.543391
      87A      1.543734    88A      1.575285    89A      1.575924
      90A      1.669755    91A      1.739930    92A      1.740148
      93A      1.769855    94A      1.832523    95A      1.832658
      96A      1.973112    97A      2.019687    98A      2.020414
      99A      2.020850   100A      2.056533   101A      2.057757
     102A      2.739036   103A      2.739124   104A      2.792077
     105A      2.814157   106A      2.890420   107A      2.891752
     108A      2.896452   109A      2.929510   110A      2.929858
     111A      2.959231   112A      2.963781   113A      2.964363
     114A      3.033968   115A      3.072121   116A      3.072377
     117A      3.085937   118A      3.169503   119A      3.169742
     120A      3.182504   121A      3.285590   122A      3.286031
     123A      3.327549   124A      3.327641   125A      3.374230
     126A      3.491893   127A      3.491978   128A      3.514789
     129A      3.527650   130A      3.568233   131A      3.568442
     132A      3.577284   133A      3.666115   134A      3.666550
     135A      3.681657   136A      3.695578   137A      3.695596
     138A      3.781277   139A      3.781304   140A      3.789794
     141A      3.913951   142A      3.914662   143A      4.036307
     144A      4.113981   145A      4.114414   146A      4.148721
     147A      4.149078   148A      4.174463   149A      4.204061
     150A      4.205412   151A      4.205470   152A      4.212420
     153A      4.316709   154A      4.318300   155A      4.361488
     156A      4.425948   157A      4.427071   158A      4.445897
     159A      4.519661   160A      4.520025   161A      4.581556
     162A      4.582128   163A      4.624886   164A      4.714245
     165A      4.780869   166A      4.781188   167A      4.840852
     168A      4.965929   169A      5.004283   170A      5.004846
     171A      5.229053   172A      5.247998   173A      5.248471
     174A      5.358099   175A      5.358154   176A      5.485117

    Beta Occupied:

       1A    -10.167444     2A    -10.167416     3A    -10.167381
       4A    -10.165773     5A     -0.782119     6A     -0.684348
       7A     -0.684194     8A     -0.511846     9A     -0.431520
      10A     -0.431489    11A     -0.422322    12A     -0.376768
      13A     -0.376677    14A     -0.362463    15A     -0.333608
      16A     -0.333020

    Beta Virtual:

      17A     -0.025711    18A      0.077063    19A      0.135028
      20A      0.135129    21A      0.144686    22A      0.144775
      23A      0.163446    24A      0.182613    25A      0.182690
      26A      0.215385    27A      0.219842    28A      0.282673
      29A      0.282895    30A      0.400297    31A      0.400512
      32A      0.419483    33A      0.426624    34A      0.426631
      35A      0.469439    36A      0.497861    37A      0.497924
      38A      0.514248    39A      0.556648    40A      0.585014
      41A      0.585096    42A      0.598268    43A      0.598325
      44A      0.610500    45A      0.628603    46A      0.632292
      47A      0.640426    48A      0.640431    49A      0.667312
      50A      0.667502    51A      0.687011    52A      0.687038
      53A      0.757132    54A      0.830436    55A      0.830439
      56A      0.856307    57A      0.923636    58A      0.923845
      59A      0.947306    60A      0.952859    61A      0.967532
      62A      0.967639    63A      1.009749    64A      1.133026
      65A      1.133042    66A      1.155947    67A      1.169083
      68A      1.169149    69A      1.233342    70A      1.280827
      71A      1.281231    72A      1.285559    73A      1.329610
      74A      1.329750    75A      1.365611    76A      1.372858
      77A      1.373379    78A      1.395010    79A      1.406947
      80A      1.407469    81A      1.422357    82A      1.422821
      83A      1.429629    84A      1.493762    85A      1.510169
      86A      1.547732    87A      1.548097    88A      1.583232
      89A      1.583854    90A      1.674610    91A      1.745698
      92A      1.745913    93A      1.780657    94A      1.836398
      95A      1.836529    96A      1.973976    97A      2.026177
      98A      2.026989    99A      2.042056   100A      2.063252
     101A      2.064517   102A      2.747282   103A      2.747358
     104A      2.814573   105A      2.817193   106A      2.902894
     107A      2.904185   108A      2.926221   109A      2.932127
     110A      2.932557   111A      2.960307   112A      2.968396
     113A      2.968955   114A      3.041990   115A      3.082109
     116A      3.082382   117A      3.087771   118A      3.185114
     119A      3.185396   120A      3.190149   121A      3.290596
     122A      3.290974   123A      3.331267   124A      3.331383
     125A      3.382033   126A      3.494603   127A      3.494716
     128A      3.513144   129A      3.530647   130A      3.577150
     131A      3.581626   132A      3.581747   133A      3.670682
     134A      3.671288   135A      3.694924   136A      3.726862
     137A      3.727216   138A      3.785797   139A      3.785912
     140A      3.818206   141A      3.923752   142A      3.924507
     143A      4.047129   144A      4.120515   145A      4.120944
     146A      4.156163   147A      4.156443   148A      4.188639
     149A      4.211301   150A      4.211393   151A      4.212151
     152A      4.216965   153A      4.324149   154A      4.325805
     155A      4.364829   156A      4.434267   157A      4.435385
     158A      4.448805   159A      4.527593   160A      4.527929
     161A      4.592198   162A      4.592725   163A      4.632059
     164A      4.724674   165A      4.787844   166A      4.788125
     167A      4.843767   168A      4.970746   169A      5.008361
     170A      5.008926   171A      5.234806   172A      5.249802
     173A      5.250260   174A      5.364614   175A      5.364708
     176A      5.487460

    Final Occupation by Irrep:
              A
    DOCC [    16 ]
    SOCC [     1 ]

  @DF-UKS Final Energy:  -157.81304092230909

   => Energetics <=

    Nuclear Repulsion Energy =            125.5761462506512629
    One-Electron Energy =                -459.1062598915015656
    Two-Electron Energy =                 196.0280235348055271
    DFT Exchange-Correlation Energy =     -20.3109508162643202
    Empirical Dispersion Energy =           0.0000000000000000
    VV10 Nonlocal Energy =                  0.0000000000000000
    Total Energy =                       -157.8130409223090851

  UHF NO Occupations:
  HONO-2 :   15  A 1.9995992
  HONO-1 :   16  A 1.9989874
  HONO-0 :   17  A 1.0000000
  LUNO+0 :   18  A 0.0010126
  LUNO+1 :   19  A 0.0004008
  LUNO+2 :   20  A 0.0001958
  LUNO+3 :   21  A 0.0001950

Computation Completed

Properties will be evaluated at   0.000000,   0.000000,   0.000000 [a0]

Properties computed using the SCF density matrix

  Nuclear Dipole Moment: [e a0]
     X:     0.8273      Y:    -0.0000      Z:     0.0031

  Electronic Dipole Moment: [e a0]
     X:    -0.7503      Y:     0.0000      Z:    -0.0030

  Dipole Moment: [e a0]
     X:     0.0770      Y:     0.0000      Z:     0.0000     Total:     0.0770

  Dipole Moment: [D]
     X:     0.1958      Y:     0.0000      Z:     0.0001     Total:     0.1958

*** tstop() called on n059 at Fri Nov  5 12:11:37 2021
Module time:
	user time   =     542.56 seconds =       9.04 minutes
	system time =      12.09 seconds =       0.20 minutes
	total time  =        140 seconds =       2.33 minutes
Total time:
	user time   =     542.56 seconds =       9.04 minutes
	system time =      12.09 seconds =       0.20 minutes
	total time  =        140 seconds =       2.33 minutes
Grab this energy -157.81304092230909
    Psi4 stopped on: Friday, 05 November 2021 12:11PM
    Psi4 wall time for execution: 0:02:19.47

*** Psi4 exiting successfully. Buy a developer a beer!
