                               Psi4 1.4a2.dev629

  ==> Input File <==

--------------------------------------------------------------------------
import os
memory 14 GB

molecule {
 C   -0.3233396101   -0.0002273726   -0.0000004272
 C    0.0610572517   -1.3998370055   -2.4256731534
 C    0.0611882735    2.8040286155    0.0009667099
 C    0.0610571229   -1.4015097325    2.4247063576
 H    2.0868965840   -1.6418780161   -2.8491181102
 H   -0.7629259636   -0.3896509778   -4.0244370437
 H   -0.7679201650   -3.2938139458   -2.3489217260
 H    2.0868776368    3.2874217770    0.0026029361
 H   -0.7634125319    3.6790876150    1.6748907550
 H   -0.7681380653    3.6800978943   -1.6784130676
 H    2.0868966143   -1.6463830131    2.8465167301
 H   -0.7631947249   -3.2902522617    2.3497981959
 H   -0.7676502992   -0.3871078904    4.0270818436
units bohr
0 2
}

basis {

assign 6-31g_2dfp_

[ 6-31g_2dfp_ ]

spherical

!----------------------------------------------------------------------
! Basis Set Exchange
! Version v0.8.13
! https://www.basissetexchange.org
!----------------------------------------------------------------------
!   Basis set: 6-31G(2df,p)
! Description: 6-31G(2df,p)
!        Role: orbital
!     Version: 0  (Data from the original Basis Set Exchange)
!----------------------------------------------------------------------

****
H     0
S    3   1.00
     18.7311370              0.03349460
      2.8253937              0.23472695
      0.6401217              0.81375733
S    1   1.00
      0.1612778              1.00000000
P    1   1.00
      1.5000000              1.0000000
P    1   1.00
      0.3750000              1.0000000
****
B     0
S    6   1.00
   2068.8823000              0.0018663
    310.6495700              0.0142515
     70.6830330              0.0695516
     19.8610800              0.2325729
      6.2993048              0.4670787
      2.1270270              0.3634314
SP   3   1.00
      4.7279710             -0.1303938              0.0745976
      1.1903377             -0.1307889              0.3078467
      0.3594117              1.1309444              0.7434568
SP   1   1.00
      0.1267512              1.0000000              1.0000000
D    1   1.00
      0.8020000              1.0000000
D    1   1.00
      0.2005000              1.0000000
F    1   1.00
      0.5000000              1.0000000
****
C     0
S    6   1.00
   3047.5249000              0.0018347
    457.3695100              0.0140373
    103.9486900              0.0688426
     29.2101550              0.2321844
      9.2866630              0.4679413
      3.1639270              0.3623120
SP   3   1.00
      7.8682724             -0.1193324              0.0689991
      1.8812885             -0.1608542              0.3164240
      0.5442493              1.1434564              0.7443083
SP   1   1.00
      0.1687144              1.0000000              1.0000000
D    1   1.00
      1.2520000              1.0000000
D    1   1.00
      0.3130000              1.0000000
F    1   1.00
      0.8000000              1.0000000
****
N     0
S    6   1.00
   4173.5110000              0.0018348
    627.4579000              0.0139950
    142.9021000              0.0685870
     40.2343300              0.2322410
     12.8202100              0.4690700
      4.3904370              0.3604550
SP   3   1.00
     11.6263580             -0.1149610              0.0675800
      2.7162800             -0.1691180              0.3239070
      0.7722180              1.1458520              0.7408950
SP   1   1.00
      0.2120313              1.0000000              1.0000000
D    1   1.00
      1.8260000              1.0000000
D    1   1.00
      0.4565000              1.0000000
F    1   1.00
      1.0000000              1.0000000
****
O     0
S    6   1.00
   5484.6717000              0.0018311
    825.2349500              0.0139501
    188.0469600              0.0684451
     52.9645000              0.2327143
     16.8975700              0.4701930
      5.7996353              0.3585209
SP   3   1.00
     15.5396160             -0.1107775              0.0708743
      3.5999336             -0.1480263              0.3397528
      1.0137618              1.1307670              0.7271586
SP   1   1.00
      0.2700058              1.0000000              1.0000000
D    1   1.00
      2.5840000              1.0000000
D    1   1.00
      0.6460000              1.0000000
F    1   1.00
      1.4000000              1.0000000
****
F     0
S    6   1.00
   7001.7130900              0.0018196169
   1051.3660900              0.0139160796
    239.2856900              0.0684053245
     67.3974453              0.233185760
     21.5199573              0.471267439
      7.40310130             0.356618546
SP   3   1.00
     20.8479528             -0.108506975            0.0716287243
      4.80830834            -0.146451658            0.3459121030
      1.34406986             1.128688580            0.7224699570
SP   1   1.00
      0.358151393            1.0000000              1.0000000
D    1   1.00
      3.5000000              1.0000000
D    1   1.00
      0.8750000              1.0000000
F    1   1.00
      1.8500000              1.0000000
****
Al     0
S    6   1.00
  13983.1000000              0.00194267
   2098.7500000              0.0148599
    477.7050000              0.0728494
    134.3600000              0.2468300
     42.8709000              0.4872580
     14.5189000              0.3234960
SP   6   1.00
    239.6680000             -0.00292619             0.00460285
     57.4419000             -0.0374080              0.0331990
     18.2859000             -0.1144870              0.1362820
      6.5991400              0.1156350              0.3304760
      2.4904900              0.6125950              0.4491460
      0.9445400              0.3937990              0.2657040
SP   3   1.00
      1.2779000             -0.2276060             -0.0175130
      0.3975900              0.00144583             0.2445330
      0.1600950              1.0927900              0.8049340
SP   1   1.00
      0.0556577              1.0000000              1.0000000
D    1   1.00
      0.6500000              1.0000000
D    1   1.00
      0.1625000              1.0000000
F    1   1.00
      0.2500000              1.0000000
****
Si     0
S    6   1.00
  16115.9000000              0.00195948
   2425.5800000              0.01492880
    553.8670000              0.07284780
    156.3400000              0.24613000
     50.0683000              0.48591400
     17.0178000              0.32500200
SP   6   1.00
    292.7180000             -0.00278094             0.00443826
     69.8731000             -0.03571460             0.03266790
     22.3363000             -0.11498500             0.13472100
      8.1503900              0.09356340             0.32867800
      3.1345800              0.60301700             0.44964000
      1.2254300              0.41895900             0.26137200
SP   3   1.00
      1.7273800             -0.24463000            -0.01779510
      0.5729220              0.00431572             0.25353900
      0.2221920              1.09818000             0.80066900
SP   1   1.00
      0.0778369              1.00000000             1.00000000
D    1   1.00
      0.9000000              1.0000000
D    1   1.00
      0.2250000              1.0000000
F    1   1.00
      0.3200000              1.0000000
****
P     0
S    6   1.00
  19413.3000000              0.0018516
   2909.4200000              0.0142062
    661.3640000              0.0699995
    185.7590000              0.2400790
     59.1943000              0.4847620
     20.0310000              0.3352000
SP   6   1.00
    339.4780000             -0.00278217             0.00456462
     81.0101000             -0.0360499              0.03369360
     25.8780000             -0.1166310              0.13975500
      9.4522100              0.0968328              0.33936200
      3.6656600              0.6144180              0.45092100
      1.4674600              0.4037980              0.23858600
SP   3   1.00
      2.1562300             -0.2529230             -0.01776530
      0.7489970              0.0328517              0.27405800
      0.2831450              1.0812500              0.78542100
SP   1   1.00
      0.0998317              1.0000000              1.00000000
D    1   1.00
      1.1000000              1.0000000
D    1   1.00
      0.2750000              1.0000000
F    1   1.00
      0.4500000              1.0000000
****
S     0
S    6   1.00
  21917.1000000              0.0018690
   3301.4900000              0.0142300
    754.1460000              0.0696960
    212.7110000              0.2384870
     67.9896000              0.4833070
     23.0515000              0.3380740
SP   6   1.00
    423.7350000             -0.0023767              0.0040610
    100.7100000             -0.0316930              0.0306810
     32.1599000             -0.1133170              0.1304520
     11.8079000              0.0560900              0.3272050
      4.6311000              0.5922550              0.4528510
      1.8702500              0.4550060              0.2560420
SP   3   1.00
      2.6158400             -0.2503740             -0.0145110
      0.9221670              0.0669570              0.3102630
      0.3412870              1.0545100              0.7544830
SP   1   1.00
      0.1171670              1.0000000              1.0000000
D    1   1.00
      1.3000000              1.0000000
D    1   1.00
      0.3250000              1.0000000
F    1   1.00
      0.5500000              1.0000000
****
Cl     0
S    6   1.00
  25180.1000000              0.0018330
   3780.3500000              0.0140340
    860.4740000              0.0690970
    242.1450000              0.2374520
     77.3349000              0.4830340
     26.2470000              0.3398560
SP   6   1.00
    491.7650000             -0.0022974              0.0039894
    116.9840000             -0.0307140              0.0303180
     37.4153000             -0.1125280              0.1298800
     13.7834000              0.0450160              0.3279510
      5.4521500              0.5893530              0.4535270
      2.2258800              0.4652060              0.2521540
SP   3   1.00
      3.1864900             -0.2518300             -0.0142990
      1.1442700              0.0615890              0.3235720
      0.4203770              1.0601800              0.7435070
SP   1   1.00
      0.1426570              1.0000000              1.0000000
D    1   1.00
      1.5000000              1.0000000
D    1   1.00
      0.3750000              1.0000000
F    1   1.00
      0.7000000              1.0000000
****
}

set {
reference uhf
freeze_core true
e_convergence 10
d_convergence 10
dft_spherical_points 1202
dft_radial_points 99
}

e = energy('b3lyp')

print_out('Grab this energy {0}'.format(e))
--------------------------------------------------------------------------

    Molecular point group: c1

    Geometry (in Bohr), charge = 0, multiplicity = 2:

       Center              X                  Y                   Z               Mass
    ------------   -----------------  -----------------  -----------------  -----------------
         C           -0.323340192320    -0.000699698559    -0.000000328375    12.000000000000
         C            0.061056669480    -1.400309331459    -2.425673054575    12.000000000000
         C            0.061187691280     2.803556289541     0.000966808725    12.000000000000
         C            0.061056540680    -1.401982058459     2.424706456425    12.000000000000
         H            2.086896001780    -1.642350342059    -2.849118011375     1.007825032230
         H           -0.762926545820    -0.390123303759    -4.024436944875     1.007825032230
         H           -0.767920747220    -3.294286271759    -2.348921627175     1.007825032230
         H            2.086877054580     3.286949451041     0.002603034925     1.007825032230
         H           -0.763413114120     3.678615289041     1.674890853825     1.007825032230
         H           -0.768138647520     3.679625568341    -1.678412968775     1.007825032230
         H            2.086896032080    -1.646855339059     2.846516828925     1.007825032230
         H           -0.763195307120    -3.290724587659     2.349798294725     1.007825032230
         H           -0.767650881420    -0.387580216359     4.027081942425     1.007825032230

  Charge       = 0
  Multiplicity = 2
  Basis Set: ANONYMOUSFCA8328B
    Blend: 6-31G_2DFP_
  Basis Set: (ANONYMOUSFCA8328B AUX)
    Blend: DEF2-UNIVERSAL-JKFIT

    Orbital Energies [Eh]
    ---------------------

    Alpha Occupied:

       1A    -10.180342     2A    -10.167051     3A    -10.167029
       4A    -10.166965     5A     -0.797766     6A     -0.686212
       7A     -0.686164     8A     -0.530778     9A     -0.441124
      10A     -0.434754    11A     -0.434589    12A     -0.382690
      13A     -0.382508    14A     -0.363611    15A     -0.338205
      16A     -0.337790    17A     -0.168961

    Alpha Virtual:

      18A      0.076072    19A      0.134126    20A      0.134163
      21A      0.142571    22A      0.142700    23A      0.154878
      24A      0.178699    25A      0.178863    26A      0.203543
      27A      0.214804    28A      0.275762    29A      0.276210
      30A      0.399214    31A      0.399241    32A      0.403346
      33A      0.424053    34A      0.424141    35A      0.456591
      36A      0.495367    37A      0.495413    38A      0.512159
      39A      0.513981    40A      0.578772    41A      0.578858
      42A      0.591573    43A      0.591696    44A      0.602572
      45A      0.624718    46A      0.631825    47A      0.636077
      48A      0.636407    49A      0.663351    50A      0.663473
      51A      0.683843    52A      0.683883    53A      0.734994
      54A      0.825351    55A      0.825463    56A      0.853915
      57A      0.915015    58A      0.915039    59A      0.944100
      60A      0.944639    61A      0.961248    62A      0.961331
      63A      1.003455    64A      1.128024    65A      1.128195
      66A      1.142224    67A      1.162978    68A      1.163560
      69A      1.223322    70A      1.274173    71A      1.274796
      72A      1.279368    73A      1.324281    74A      1.324407
      75A      1.355984    76A      1.365908    77A      1.366205
      78A      1.392463    79A      1.403874    80A      1.404222
      81A      1.416969    82A      1.417263    83A      1.427923
      84A      1.491454    85A      1.499103    86A      1.542752
      87A      1.542893    88A      1.574256    89A      1.574645
      90A      1.669831    91A      1.739278    92A      1.739543
      93A      1.768311    94A      1.830898    95A      1.831914
      96A      1.971700    97A      2.018191    98A      2.018651
      99A      2.019590   100A      2.051975   101A      2.053326
     102A      2.738362   103A      2.738605   104A      2.790922
     105A      2.811429   106A      2.889868   107A      2.890035
     108A      2.894945   109A      2.929429   110A      2.929559
     111A      2.958992   112A      2.964297   113A      2.964470
     114A      3.033995   115A      3.071148   116A      3.071431
     117A      3.084370   118A      3.168566   119A      3.168977
     120A      3.180611   121A      3.285296   122A      3.285316
     123A      3.326980   124A      3.327361   125A      3.375612
     126A      3.489842   127A      3.490481   128A      3.514004
     129A      3.525339   130A      3.568322   131A      3.568466
     132A      3.575135   133A      3.665707   134A      3.667029
     135A      3.679687   136A      3.693992   137A      3.694260
     138A      3.776610   139A      3.776995   140A      3.789119
     141A      3.911477   142A      3.912982   143A      4.034444
     144A      4.111147   145A      4.111464   146A      4.147865
     147A      4.148475   148A      4.173120   149A      4.202255
     150A      4.203074   151A      4.203477   152A      4.211021
     153A      4.315223   154A      4.316669   155A      4.358972
     156A      4.423531   157A      4.425300   158A      4.443545
     159A      4.516184   160A      4.517504   161A      4.578251
     162A      4.578290   163A      4.617538   164A      4.709454
     165A      4.774260   166A      4.774910   167A      4.836917
     168A      4.962844   169A      5.002242   170A      5.003714
     171A      5.228025   172A      5.246539   173A      5.246936
     174A      5.355519   175A      5.355659   176A      5.479379

    Beta Occupied:

       1A    -10.167806     2A    -10.167791     3A    -10.167727
       4A    -10.166519     5A     -0.781091     6A     -0.684020
       7A     -0.683961     8A     -0.511750     9A     -0.431126
      10A     -0.430959    11A     -0.421821    12A     -0.376794
      13A     -0.376573    14A     -0.362595    15A     -0.333330
      16A     -0.332912

    Beta Virtual:

      17A     -0.025743    18A      0.077081    19A      0.135028
      20A      0.135041    21A      0.144458    22A      0.144554
      23A      0.163338    24A      0.182382    25A      0.182521
      26A      0.215027    27A      0.218933    28A      0.282119
      29A      0.282549    30A      0.400388    31A      0.400407
      32A      0.419791    33A      0.426863    34A      0.426953
      35A      0.468499    36A      0.497622    37A      0.497679
      38A      0.513896    39A      0.556324    40A      0.584317
      41A      0.584413    42A      0.597753    43A      0.597875
      44A      0.609994    45A      0.628063    46A      0.632014
      47A      0.639369    48A      0.639687    49A      0.666909
      50A      0.667044    51A      0.686490    52A      0.686505
      53A      0.757517    54A      0.830515    55A      0.830636
      56A      0.855268    57A      0.922984    58A      0.923013
      59A      0.945959    60A      0.953545    61A      0.966558
      62A      0.966633    63A      1.008695    64A      1.132063
      65A      1.132217    66A      1.155595    67A      1.168036
      68A      1.168651    69A      1.232295    70A      1.279766
      71A      1.280397    72A      1.285121    73A      1.329283
      74A      1.329382    75A      1.365399    76A      1.371179
      77A      1.371420    78A      1.393523    79A      1.407389
      80A      1.407638    81A      1.422037    82A      1.422289
      83A      1.428198    84A      1.492515    85A      1.509533
      86A      1.547152    87A      1.547311    88A      1.582122
      89A      1.582520    90A      1.674677    91A      1.745035
      92A      1.745308    93A      1.779092    94A      1.834764
      95A      1.835760    96A      1.972574    97A      2.024902
      98A      2.026001    99A      2.039689   100A      2.058696
     101A      2.060041   102A      2.746720   103A      2.746918
     104A      2.811836   105A      2.816062   106A      2.902583
     107A      2.902700   108A      2.924645   109A      2.931929
     110A      2.932023   111A      2.960056   112A      2.968827
     113A      2.969028   114A      3.041926   115A      3.081062
     116A      3.081336   117A      3.086195   118A      3.184258
     119A      3.184742   120A      3.188334   121A      3.290087
     122A      3.290122   123A      3.330793   124A      3.331158
     125A      3.383431   126A      3.492551   127A      3.493232
     128A      3.512374   129A      3.528380   130A      3.574995
     131A      3.581643   132A      3.581826   133A      3.670424
     134A      3.671815   135A      3.692977   136A      3.725618
     137A      3.725896   138A      3.781091   139A      3.781563
     140A      3.817666   141A      3.921344   142A      3.922748
     143A      4.045332   144A      4.117857   145A      4.118373
     146A      4.155180   147A      4.155598   148A      4.187132
     149A      4.208547   150A      4.209417   151A      4.210654
     152A      4.215567   153A      4.322638   154A      4.324138
     155A      4.362336   156A      4.431779   157A      4.433449
     158A      4.446461   159A      4.523980   160A      4.525288
     161A      4.588835   162A      4.588909   163A      4.624731
     164A      4.719799   165A      4.781231   166A      4.781844
     167A      4.839835   168A      4.967640   169A      5.006295
     170A      5.007738   171A      5.233741   172A      5.248335
     173A      5.248717   174A      5.361974   175A      5.362156
     176A      5.481700

    Final Occupation by Irrep:
              A
    DOCC [    16 ]
    SOCC [     1 ]

  @DF-UKS Final Energy:  -157.81305924958400

   => Energetics <=

    Nuclear Repulsion Energy =            125.3946232064675570
    One-Electron Energy =                -458.7488799158638244
    Two-Electron Energy =                 195.8483436057296103
    DFT Exchange-Correlation Energy =     -20.3071461459173221
    Empirical Dispersion Energy =           0.0000000000000000
    VV10 Nonlocal Energy =                  0.0000000000000000
    Total Energy =                       -157.8130592495840006

  UHF NO Occupations:
  HONO-2 :   15  A 1.9996009
  HONO-1 :   16  A 1.9989805
  HONO-0 :   17  A 1.0000000
  LUNO+0 :   18  A 0.0010195
  LUNO+1 :   19  A 0.0003991
  LUNO+2 :   20  A 0.0001979
  LUNO+3 :   21  A 0.0001972

Computation Completed

Properties will be evaluated at   0.000000,   0.000000,   0.000000 [a0]

Properties computed using the SCF density matrix

  Nuclear Dipole Moment: [e a0]
     X:     0.8272      Y:    -0.0033      Z:     0.0000

  Electronic Dipole Moment: [e a0]
     X:    -0.7493      Y:     0.0034      Z:    -0.0000

  Dipole Moment: [e a0]
     X:     0.0779      Y:     0.0001      Z:    -0.0000     Total:     0.0779

  Dipole Moment: [D]
     X:     0.1980      Y:     0.0002      Z:    -0.0000     Total:     0.1980

*** tstop() called on n089 at Fri Nov  5 12:58:18 2021
Module time:
	user time   =     476.68 seconds =       7.94 minutes
	system time =       4.42 seconds =       0.07 minutes
	total time  =        121 seconds =       2.02 minutes
Total time:
	user time   =     476.68 seconds =       7.94 minutes
	system time =       4.42 seconds =       0.07 minutes
	total time  =        121 seconds =       2.02 minutes
Grab this energy -157.813059249584
    Psi4 stopped on: Friday, 05 November 2021 12:58PM
    Psi4 wall time for execution: 0:02:01.00

*** Psi4 exiting successfully. Buy a developer a beer!
