                               Psi4 1.4a2.dev629

  ==> Input File <==

--------------------------------------------------------------------------
import os
memory 14 GB

molecule {
 C   -0.3233388306   -0.0000035777    0.0055908162
 C    0.0622320600   -1.4012116168   -2.4260070412
 C    0.0610202084    2.8017545165    0.0009588317
 C    0.0600510528   -1.4005378805    2.4267576191
 H    2.0895334845   -1.6457585881   -2.8531856310
 H   -0.7640947593   -0.3880144957   -4.0244159732
 H   -0.7641292490   -3.2898978193   -2.3463874785
 H    2.0867955749    3.2880970421   -0.0028539939
 H   -0.7655175552    3.6779739842    1.6763414239
 H   -0.7657715617    3.6825252859   -1.6766597224
 H    2.0843261703   -1.6424304927    2.8417130608
 H   -0.7670013318   -3.2940956436    2.3515952323
 H   -0.7667131400   -0.3884250276    4.0265528560
units bohr
0 2
}

basis {

assign 6-31g_2dfp_

[ 6-31g_2dfp_ ]

spherical

!----------------------------------------------------------------------
! Basis Set Exchange
! Version v0.8.13
! https://www.basissetexchange.org
!----------------------------------------------------------------------
!   Basis set: 6-31G(2df,p)
! Description: 6-31G(2df,p)
!        Role: orbital
!     Version: 0  (Data from the original Basis Set Exchange)
!----------------------------------------------------------------------

****
H     0
S    3   1.00
     18.7311370              0.03349460
      2.8253937              0.23472695
      0.6401217              0.81375733
S    1   1.00
      0.1612778              1.00000000
P    1   1.00
      1.5000000              1.0000000
P    1   1.00
      0.3750000              1.0000000
****
B     0
S    6   1.00
   2068.8823000              0.0018663
    310.6495700              0.0142515
     70.6830330              0.0695516
     19.8610800              0.2325729
      6.2993048              0.4670787
      2.1270270              0.3634314
SP   3   1.00
      4.7279710             -0.1303938              0.0745976
      1.1903377             -0.1307889              0.3078467
      0.3594117              1.1309444              0.7434568
SP   1   1.00
      0.1267512              1.0000000              1.0000000
D    1   1.00
      0.8020000              1.0000000
D    1   1.00
      0.2005000              1.0000000
F    1   1.00
      0.5000000              1.0000000
****
C     0
S    6   1.00
   3047.5249000              0.0018347
    457.3695100              0.0140373
    103.9486900              0.0688426
     29.2101550              0.2321844
      9.2866630              0.4679413
      3.1639270              0.3623120
SP   3   1.00
      7.8682724             -0.1193324              0.0689991
      1.8812885             -0.1608542              0.3164240
      0.5442493              1.1434564              0.7443083
SP   1   1.00
      0.1687144              1.0000000              1.0000000
D    1   1.00
      1.2520000              1.0000000
D    1   1.00
      0.3130000              1.0000000
F    1   1.00
      0.8000000              1.0000000
****
N     0
S    6   1.00
   4173.5110000              0.0018348
    627.4579000              0.0139950
    142.9021000              0.0685870
     40.2343300              0.2322410
     12.8202100              0.4690700
      4.3904370              0.3604550
SP   3   1.00
     11.6263580             -0.1149610              0.0675800
      2.7162800             -0.1691180              0.3239070
      0.7722180              1.1458520              0.7408950
SP   1   1.00
      0.2120313              1.0000000              1.0000000
D    1   1.00
      1.8260000              1.0000000
D    1   1.00
      0.4565000              1.0000000
F    1   1.00
      1.0000000              1.0000000
****
O     0
S    6   1.00
   5484.6717000              0.0018311
    825.2349500              0.0139501
    188.0469600              0.0684451
     52.9645000              0.2327143
     16.8975700              0.4701930
      5.7996353              0.3585209
SP   3   1.00
     15.5396160             -0.1107775              0.0708743
      3.5999336             -0.1480263              0.3397528
      1.0137618              1.1307670              0.7271586
SP   1   1.00
      0.2700058              1.0000000              1.0000000
D    1   1.00
      2.5840000              1.0000000
D    1   1.00
      0.6460000              1.0000000
F    1   1.00
      1.4000000              1.0000000
****
F     0
S    6   1.00
   7001.7130900              0.0018196169
   1051.3660900              0.0139160796
    239.2856900              0.0684053245
     67.3974453              0.233185760
     21.5199573              0.471267439
      7.40310130             0.356618546
SP   3   1.00
     20.8479528             -0.108506975            0.0716287243
      4.80830834            -0.146451658            0.3459121030
      1.34406986             1.128688580            0.7224699570
SP   1   1.00
      0.358151393            1.0000000              1.0000000
D    1   1.00
      3.5000000              1.0000000
D    1   1.00
      0.8750000              1.0000000
F    1   1.00
      1.8500000              1.0000000
****
Al     0
S    6   1.00
  13983.1000000              0.00194267
   2098.7500000              0.0148599
    477.7050000              0.0728494
    134.3600000              0.2468300
     42.8709000              0.4872580
     14.5189000              0.3234960
SP   6   1.00
    239.6680000             -0.00292619             0.00460285
     57.4419000             -0.0374080              0.0331990
     18.2859000             -0.1144870              0.1362820
      6.5991400              0.1156350              0.3304760
      2.4904900              0.6125950              0.4491460
      0.9445400              0.3937990              0.2657040
SP   3   1.00
      1.2779000             -0.2276060             -0.0175130
      0.3975900              0.00144583             0.2445330
      0.1600950              1.0927900              0.8049340
SP   1   1.00
      0.0556577              1.0000000              1.0000000
D    1   1.00
      0.6500000              1.0000000
D    1   1.00
      0.1625000              1.0000000
F    1   1.00
      0.2500000              1.0000000
****
Si     0
S    6   1.00
  16115.9000000              0.00195948
   2425.5800000              0.01492880
    553.8670000              0.07284780
    156.3400000              0.24613000
     50.0683000              0.48591400
     17.0178000              0.32500200
SP   6   1.00
    292.7180000             -0.00278094             0.00443826
     69.8731000             -0.03571460             0.03266790
     22.3363000             -0.11498500             0.13472100
      8.1503900              0.09356340             0.32867800
      3.1345800              0.60301700             0.44964000
      1.2254300              0.41895900             0.26137200
SP   3   1.00
      1.7273800             -0.24463000            -0.01779510
      0.5729220              0.00431572             0.25353900
      0.2221920              1.09818000             0.80066900
SP   1   1.00
      0.0778369              1.00000000             1.00000000
D    1   1.00
      0.9000000              1.0000000
D    1   1.00
      0.2250000              1.0000000
F    1   1.00
      0.3200000              1.0000000
****
P     0
S    6   1.00
  19413.3000000              0.0018516
   2909.4200000              0.0142062
    661.3640000              0.0699995
    185.7590000              0.2400790
     59.1943000              0.4847620
     20.0310000              0.3352000
SP   6   1.00
    339.4780000             -0.00278217             0.00456462
     81.0101000             -0.0360499              0.03369360
     25.8780000             -0.1166310              0.13975500
      9.4522100              0.0968328              0.33936200
      3.6656600              0.6144180              0.45092100
      1.4674600              0.4037980              0.23858600
SP   3   1.00
      2.1562300             -0.2529230             -0.01776530
      0.7489970              0.0328517              0.27405800
      0.2831450              1.0812500              0.78542100
SP   1   1.00
      0.0998317              1.0000000              1.00000000
D    1   1.00
      1.1000000              1.0000000
D    1   1.00
      0.2750000              1.0000000
F    1   1.00
      0.4500000              1.0000000
****
S     0
S    6   1.00
  21917.1000000              0.0018690
   3301.4900000              0.0142300
    754.1460000              0.0696960
    212.7110000              0.2384870
     67.9896000              0.4833070
     23.0515000              0.3380740
SP   6   1.00
    423.7350000             -0.0023767              0.0040610
    100.7100000             -0.0316930              0.0306810
     32.1599000             -0.1133170              0.1304520
     11.8079000              0.0560900              0.3272050
      4.6311000              0.5922550              0.4528510
      1.8702500              0.4550060              0.2560420
SP   3   1.00
      2.6158400             -0.2503740             -0.0145110
      0.9221670              0.0669570              0.3102630
      0.3412870              1.0545100              0.7544830
SP   1   1.00
      0.1171670              1.0000000              1.0000000
D    1   1.00
      1.3000000              1.0000000
D    1   1.00
      0.3250000              1.0000000
F    1   1.00
      0.5500000              1.0000000
****
Cl     0
S    6   1.00
  25180.1000000              0.0018330
   3780.3500000              0.0140340
    860.4740000              0.0690970
    242.1450000              0.2374520
     77.3349000              0.4830340
     26.2470000              0.3398560
SP   6   1.00
    491.7650000             -0.0022974              0.0039894
    116.9840000             -0.0307140              0.0303180
     37.4153000             -0.1125280              0.1298800
     13.7834000              0.0450160              0.3279510
      5.4521500              0.5893530              0.4535270
      2.2258800              0.4652060              0.2521540
SP   3   1.00
      3.1864900             -0.2518300             -0.0142990
      1.1442700              0.0615890              0.3235720
      0.4203770              1.0601800              0.7435070
SP   1   1.00
      0.1426570              1.0000000              1.0000000
D    1   1.00
      1.5000000              1.0000000
D    1   1.00
      0.3750000              1.0000000
F    1   1.00
      0.7000000              1.0000000
****
}

set {
reference uhf
freeze_core true
e_convergence 10
d_convergence 10
dft_spherical_points 1202
dft_radial_points 99
}

e = energy('b3lyp')

print_out('Grab this energy {0}'.format(e))
--------------------------------------------------------------------------

    Molecular point group: c1

    Geometry (in Bohr), charge = 0, multiplicity = 2:

       Center              X                  Y                   Z               Mass
    ------------   -----------------  -----------------  -----------------  -----------------
         C           -0.323339692603    -0.000003425987     0.004184740134    12.000000000000
         C            0.062231197997    -1.401211465087    -2.427413117266    12.000000000000
         C            0.061019346397     2.801754668213    -0.000447244366    12.000000000000
         C            0.060050190797    -1.400537728787     2.425351543034    12.000000000000
         H            2.089532622497    -1.645758436387    -2.854591707066     1.007825032230
         H           -0.764095621303    -0.388014343987    -4.025822049266     1.007825032230
         H           -0.764130111003    -3.289897667587    -2.347793554566     1.007825032230
         H            2.086794712897     3.288097193813    -0.004260069966     1.007825032230
         H           -0.765518417203     3.677974135913     1.674935347834     1.007825032230
         H           -0.765772423703     3.682525437613    -1.678065798466     1.007825032230
         H            2.084325308297    -1.642430340987     2.840306984734     1.007825032230
         H           -0.767002193803    -3.294095491887     2.350189156234     1.007825032230
         H           -0.766714002003    -0.388424875887     4.025146779934     1.007825032230

  Charge       = 0
  Multiplicity = 2
  Basis Set: ANONYMOUS18291BA7
    Blend: 6-31G_2DFP_
  Basis Set: (ANONYMOUS18291BA7 AUX)
    Blend: DEF2-UNIVERSAL-JKFIT

    Orbital Energies [Eh]
    ---------------------

    Alpha Occupied:

       1A    -10.180342     2A    -10.167031     3A    -10.167030
       4A    -10.166984     5A     -0.797770     6A     -0.686405
       7A     -0.685968     8A     -0.530775     9A     -0.441136
      10A     -0.434796    11A     -0.434540    12A     -0.382939
      13A     -0.382257    14A     -0.363609    15A     -0.338672
      16A     -0.337326    17A     -0.168960

    Alpha Virtual:

      18A      0.076072    19A      0.134119    20A      0.134188
      21A      0.142246    22A      0.143008    23A      0.154881
      24A      0.178634    25A      0.178918    26A      0.203546
      27A      0.214803    28A      0.275675    29A      0.276294
      30A      0.399226    31A      0.399230    32A      0.403346
      33A      0.423995    34A      0.424201    35A      0.456592
      36A      0.495352    37A      0.495426    38A      0.512161
      39A      0.513981    40A      0.578749    41A      0.578885
      42A      0.591367    43A      0.591873    44A      0.602615
      45A      0.624748    46A      0.631757    47A      0.635896
      48A      0.636635    49A      0.663306    50A      0.663520
      51A      0.683690    52A      0.684016    53A      0.734993
      54A      0.825239    55A      0.825574    56A      0.853916
      57A      0.914808    58A      0.915218    59A      0.944113
      60A      0.944627    61A      0.961051    62A      0.961558
      63A      1.003452    64A      1.127937    65A      1.128255
      66A      1.142237    67A      1.163039    68A      1.163496
      69A      1.223328    70A      1.273915    71A      1.275048
      72A      1.279383    73A      1.324184    74A      1.324515
      75A      1.355971    76A      1.365797    77A      1.366333
      78A      1.392456    79A      1.403517    80A      1.404598
      81A      1.417069    82A      1.417115    83A      1.427923
      84A      1.491499    85A      1.499064    86A      1.542827
      87A      1.542857    88A      1.573987    89A      1.574920
      90A      1.669827    91A      1.739120    92A      1.739711
      93A      1.768318    94A      1.831231    95A      1.831569
      96A      1.971732    97A      2.018282    98A      2.018585
      99A      2.019545   100A      2.051651   101A      2.053638
     102A      2.738238   103A      2.738738   104A      2.790924
     105A      2.811430   106A      2.889542   107A      2.890336
     108A      2.894972   109A      2.928796   110A      2.930191
     111A      2.958967   112A      2.964056   113A      2.964727
     114A      3.033996   115A      3.070147   116A      3.072443
     117A      3.084354   118A      3.168467   119A      3.169059
     120A      3.180644   121A      3.285125   122A      3.285489
     123A      3.325904   124A      3.328424   125A      3.375595
     126A      3.488553   127A      3.491732   128A      3.514009
     129A      3.525340   130A      3.567961   131A      3.568608
     132A      3.575366   133A      3.666215   134A      3.666494
     135A      3.679678   136A      3.693462   137A      3.694727
     138A      3.776134   139A      3.777476   140A      3.789248
     141A      3.911892   142A      3.912564   143A      4.034397
     144A      4.110912   145A      4.111807   146A      4.147116
     147A      4.149136   148A      4.173267   149A      4.201676
     150A      4.203029   151A      4.204075   152A      4.210894
     153A      4.315197   154A      4.316711   155A      4.358987
     156A      4.424319   157A      4.424616   158A      4.443431
     159A      4.516049   160A      4.517566   161A      4.577919
     162A      4.578351   163A      4.617927   164A      4.709402
     165A      4.773459   166A      4.775765   167A      4.836886
     168A      4.962804   169A      5.002718   170A      5.003295
     171A      5.228056   172A      5.246251   173A      5.247407
     174A      5.354994   175A      5.356017   176A      5.479339

    Beta Occupied:

       1A    -10.167784     2A    -10.167782     3A    -10.167758
       4A    -10.166519     5A     -0.781095     6A     -0.684191
       7A     -0.683788     8A     -0.511747     9A     -0.431158
      10A     -0.430932    11A     -0.421821    12A     -0.376990
      13A     -0.376377    14A     -0.362592    15A     -0.333793
      16A     -0.332451

    Beta Virtual:

      17A     -0.025742    18A      0.077081    19A      0.134999
      20A      0.135087    21A      0.144150    22A      0.144848
      23A      0.163340    24A      0.182289    25A      0.182607
      26A      0.215032    27A      0.218927    28A      0.282053
      29A      0.282612    30A      0.400396    31A      0.400400
      32A      0.419793    33A      0.426816    34A      0.427002
      35A      0.468499    36A      0.497612    37A      0.497689
      38A      0.513896    39A      0.556321    40A      0.584282
      41A      0.584453    42A      0.597534    43A      0.598069
      44A      0.610034    45A      0.628122    46A      0.631921
      47A      0.639168    48A      0.639931    49A      0.666868
      50A      0.667087    51A      0.686340    52A      0.686637
      53A      0.757516    54A      0.830414    55A      0.830735
      56A      0.855269    57A      0.922832    58A      0.923138
      59A      0.945950    60A      0.953548    61A      0.966364
      62A      0.966861    63A      1.008693    64A      1.131993
      65A      1.132270    66A      1.155593    67A      1.168153
      68A      1.168532    69A      1.232300    70A      1.279584
      71A      1.280586    72A      1.285127    73A      1.329180
      74A      1.329498    75A      1.365363    76A      1.371119
      77A      1.371526    78A      1.393514    79A      1.406920
      80A      1.408120    81A      1.422111    82A      1.422167
      83A      1.428199    84A      1.492547    85A      1.509505
      86A      1.547156    87A      1.547352    88A      1.581739
      89A      1.582905    90A      1.674675    91A      1.744880
      92A      1.745473    93A      1.779097    94A      1.835105
      95A      1.835406    96A      1.972592    97A      2.024952
      98A      2.025948    99A      2.039690   100A      2.058367
     101A      2.060353   102A      2.746530   103A      2.747115
     104A      2.811842   105A      2.816058   106A      2.902353
     107A      2.902925   108A      2.924659   109A      2.931234
     110A      2.932715   111A      2.960042   112A      2.968596
     113A      2.969261   114A      3.041931   115A      3.080088
     116A      3.082317   117A      3.086171   118A      3.184245
     119A      3.184683   120A      3.188427   121A      3.290001
     122A      3.290210   123A      3.329716   124A      3.332219
     125A      3.383414   126A      3.491296   127A      3.494446
     128A      3.512377   129A      3.528386   130A      3.574856
     131A      3.581701   132A      3.581919   133A      3.670902
     134A      3.671300   135A      3.692973   136A      3.725473
     137A      3.726003   138A      3.780641   139A      3.782021
     140A      3.817766   141A      3.921719   142A      3.922376
     143A      4.045286   144A      4.117803   145A      4.118553
     146A      4.154264   147A      4.156398   148A      4.187326
     149A      4.208395   150A      4.208962   151A      4.211257
     152A      4.215377   153A      4.322601   154A      4.324185
     155A      4.362350   156A      4.432528   157A      4.432836
     158A      4.446318   159A      4.523800   160A      4.525395
     161A      4.588489   162A      4.588956   163A      4.625146
     164A      4.719746   165A      4.780347   166A      4.782785
     167A      4.839804   168A      4.967595   169A      5.006759
     170A      5.007336   171A      5.233771   172A      5.248042
     173A      5.249184   174A      5.361442   175A      5.362531
     176A      5.481660

    Final Occupation by Irrep:
              A
    DOCC [    16 ]
    SOCC [     1 ]

  @DF-UKS Final Energy:  -157.81305738019728

   => Energetics <=

    Nuclear Repulsion Energy =            125.3947102998001242
    One-Electron Energy =                -458.7490496284485744
    Two-Electron Energy =                 195.8484288191613700
    DFT Exchange-Correlation Energy =     -20.3071468707101914
    Empirical Dispersion Energy =           0.0000000000000000
    VV10 Nonlocal Energy =                  0.0000000000000000
    Total Energy =                       -157.8130573801972787

  UHF NO Occupations:
  HONO-2 :   15  A 1.9996009
  HONO-1 :   16  A 1.9989805
  HONO-0 :   17  A 1.0000000
  LUNO+0 :   18  A 0.0010195
  LUNO+1 :   19  A 0.0003991
  LUNO+2 :   20  A 0.0001988
  LUNO+3 :   21  A 0.0001963

Computation Completed

Properties will be evaluated at   0.000000,   0.000000,   0.000000 [a0]

Properties computed using the SCF density matrix

  Nuclear Dipole Moment: [e a0]
     X:     0.8272      Y:    -0.0000      Z:    -0.0099

  Electronic Dipole Moment: [e a0]
     X:    -0.7493      Y:     0.0000      Z:     0.0119

  Dipole Moment: [e a0]
     X:     0.0779      Y:     0.0000      Z:     0.0020     Total:     0.0779

  Dipole Moment: [D]
     X:     0.1980      Y:     0.0000      Z:     0.0051     Total:     0.1981

*** tstop() called on n054 at Fri Nov  5 13:57:38 2021
Module time:
	user time   =     546.14 seconds =       9.10 minutes
	system time =      11.78 seconds =       0.20 minutes
	total time  =        141 seconds =       2.35 minutes
Total time:
	user time   =     546.14 seconds =       9.10 minutes
	system time =      11.78 seconds =       0.20 minutes
	total time  =        141 seconds =       2.35 minutes
Grab this energy -157.81305738019728
    Psi4 stopped on: Friday, 05 November 2021 01:57PM
    Psi4 wall time for execution: 0:02:20.35

*** Psi4 exiting successfully. Buy a developer a beer!
