                               Psi4 1.4a2.dev629

  ==> Input File <==

--------------------------------------------------------------------------
import os
memory 14 GB

molecule {
 C   -0.3233400628   -0.0002270310   -0.0002466226
 C    0.0600931319   -1.4007912948   -2.4252457363
 C    0.0611873829    2.8040291562    0.0001473017
 C    0.0620210973   -1.4005547001    2.4251336926
 H    2.0840830038   -1.6422946025   -2.8427866335
 H   -0.7662253278   -0.3891384524   -4.0278383277
 H   -0.7674536307   -3.2936653576   -2.3525724303
 H    2.0868766582    3.2874224495    0.0018522330
 H   -0.7667371132    3.6810134660    1.6760794001
 H   -0.7648112933    3.6781770730   -1.6772234765
 H    2.0896973170   -1.6459691851    2.8528570995
 H   -0.7636532156   -3.2903995622    2.3461567958
 H   -0.7643458244   -0.3876262728    4.0236867041
units bohr
0 2
}

basis {

assign 6-31g_2dfp_

[ 6-31g_2dfp_ ]

spherical

!----------------------------------------------------------------------
! Basis Set Exchange
! Version v0.8.13
! https://www.basissetexchange.org
!----------------------------------------------------------------------
!   Basis set: 6-31G(2df,p)
! Description: 6-31G(2df,p)
!        Role: orbital
!     Version: 0  (Data from the original Basis Set Exchange)
!----------------------------------------------------------------------

****
H     0
S    3   1.00
     18.7311370              0.03349460
      2.8253937              0.23472695
      0.6401217              0.81375733
S    1   1.00
      0.1612778              1.00000000
P    1   1.00
      1.5000000              1.0000000
P    1   1.00
      0.3750000              1.0000000
****
B     0
S    6   1.00
   2068.8823000              0.0018663
    310.6495700              0.0142515
     70.6830330              0.0695516
     19.8610800              0.2325729
      6.2993048              0.4670787
      2.1270270              0.3634314
SP   3   1.00
      4.7279710             -0.1303938              0.0745976
      1.1903377             -0.1307889              0.3078467
      0.3594117              1.1309444              0.7434568
SP   1   1.00
      0.1267512              1.0000000              1.0000000
D    1   1.00
      0.8020000              1.0000000
D    1   1.00
      0.2005000              1.0000000
F    1   1.00
      0.5000000              1.0000000
****
C     0
S    6   1.00
   3047.5249000              0.0018347
    457.3695100              0.0140373
    103.9486900              0.0688426
     29.2101550              0.2321844
      9.2866630              0.4679413
      3.1639270              0.3623120
SP   3   1.00
      7.8682724             -0.1193324              0.0689991
      1.8812885             -0.1608542              0.3164240
      0.5442493              1.1434564              0.7443083
SP   1   1.00
      0.1687144              1.0000000              1.0000000
D    1   1.00
      1.2520000              1.0000000
D    1   1.00
      0.3130000              1.0000000
F    1   1.00
      0.8000000              1.0000000
****
N     0
S    6   1.00
   4173.5110000              0.0018348
    627.4579000              0.0139950
    142.9021000              0.0685870
     40.2343300              0.2322410
     12.8202100              0.4690700
      4.3904370              0.3604550
SP   3   1.00
     11.6263580             -0.1149610              0.0675800
      2.7162800             -0.1691180              0.3239070
      0.7722180              1.1458520              0.7408950
SP   1   1.00
      0.2120313              1.0000000              1.0000000
D    1   1.00
      1.8260000              1.0000000
D    1   1.00
      0.4565000              1.0000000
F    1   1.00
      1.0000000              1.0000000
****
O     0
S    6   1.00
   5484.6717000              0.0018311
    825.2349500              0.0139501
    188.0469600              0.0684451
     52.9645000              0.2327143
     16.8975700              0.4701930
      5.7996353              0.3585209
SP   3   1.00
     15.5396160             -0.1107775              0.0708743
      3.5999336             -0.1480263              0.3397528
      1.0137618              1.1307670              0.7271586
SP   1   1.00
      0.2700058              1.0000000              1.0000000
D    1   1.00
      2.5840000              1.0000000
D    1   1.00
      0.6460000              1.0000000
F    1   1.00
      1.4000000              1.0000000
****
F     0
S    6   1.00
   7001.7130900              0.0018196169
   1051.3660900              0.0139160796
    239.2856900              0.0684053245
     67.3974453              0.233185760
     21.5199573              0.471267439
      7.40310130             0.356618546
SP   3   1.00
     20.8479528             -0.108506975            0.0716287243
      4.80830834            -0.146451658            0.3459121030
      1.34406986             1.128688580            0.7224699570
SP   1   1.00
      0.358151393            1.0000000              1.0000000
D    1   1.00
      3.5000000              1.0000000
D    1   1.00
      0.8750000              1.0000000
F    1   1.00
      1.8500000              1.0000000
****
Al     0
S    6   1.00
  13983.1000000              0.00194267
   2098.7500000              0.0148599
    477.7050000              0.0728494
    134.3600000              0.2468300
     42.8709000              0.4872580
     14.5189000              0.3234960
SP   6   1.00
    239.6680000             -0.00292619             0.00460285
     57.4419000             -0.0374080              0.0331990
     18.2859000             -0.1144870              0.1362820
      6.5991400              0.1156350              0.3304760
      2.4904900              0.6125950              0.4491460
      0.9445400              0.3937990              0.2657040
SP   3   1.00
      1.2779000             -0.2276060             -0.0175130
      0.3975900              0.00144583             0.2445330
      0.1600950              1.0927900              0.8049340
SP   1   1.00
      0.0556577              1.0000000              1.0000000
D    1   1.00
      0.6500000              1.0000000
D    1   1.00
      0.1625000              1.0000000
F    1   1.00
      0.2500000              1.0000000
****
Si     0
S    6   1.00
  16115.9000000              0.00195948
   2425.5800000              0.01492880
    553.8670000              0.07284780
    156.3400000              0.24613000
     50.0683000              0.48591400
     17.0178000              0.32500200
SP   6   1.00
    292.7180000             -0.00278094             0.00443826
     69.8731000             -0.03571460             0.03266790
     22.3363000             -0.11498500             0.13472100
      8.1503900              0.09356340             0.32867800
      3.1345800              0.60301700             0.44964000
      1.2254300              0.41895900             0.26137200
SP   3   1.00
      1.7273800             -0.24463000            -0.01779510
      0.5729220              0.00431572             0.25353900
      0.2221920              1.09818000             0.80066900
SP   1   1.00
      0.0778369              1.00000000             1.00000000
D    1   1.00
      0.9000000              1.0000000
D    1   1.00
      0.2250000              1.0000000
F    1   1.00
      0.3200000              1.0000000
****
P     0
S    6   1.00
  19413.3000000              0.0018516
   2909.4200000              0.0142062
    661.3640000              0.0699995
    185.7590000              0.2400790
     59.1943000              0.4847620
     20.0310000              0.3352000
SP   6   1.00
    339.4780000             -0.00278217             0.00456462
     81.0101000             -0.0360499              0.03369360
     25.8780000             -0.1166310              0.13975500
      9.4522100              0.0968328              0.33936200
      3.6656600              0.6144180              0.45092100
      1.4674600              0.4037980              0.23858600
SP   3   1.00
      2.1562300             -0.2529230             -0.01776530
      0.7489970              0.0328517              0.27405800
      0.2831450              1.0812500              0.78542100
SP   1   1.00
      0.0998317              1.0000000              1.00000000
D    1   1.00
      1.1000000              1.0000000
D    1   1.00
      0.2750000              1.0000000
F    1   1.00
      0.4500000              1.0000000
****
S     0
S    6   1.00
  21917.1000000              0.0018690
   3301.4900000              0.0142300
    754.1460000              0.0696960
    212.7110000              0.2384870
     67.9896000              0.4833070
     23.0515000              0.3380740
SP   6   1.00
    423.7350000             -0.0023767              0.0040610
    100.7100000             -0.0316930              0.0306810
     32.1599000             -0.1133170              0.1304520
     11.8079000              0.0560900              0.3272050
      4.6311000              0.5922550              0.4528510
      1.8702500              0.4550060              0.2560420
SP   3   1.00
      2.6158400             -0.2503740             -0.0145110
      0.9221670              0.0669570              0.3102630
      0.3412870              1.0545100              0.7544830
SP   1   1.00
      0.1171670              1.0000000              1.0000000
D    1   1.00
      1.3000000              1.0000000
D    1   1.00
      0.3250000              1.0000000
F    1   1.00
      0.5500000              1.0000000
****
Cl     0
S    6   1.00
  25180.1000000              0.0018330
   3780.3500000              0.0140340
    860.4740000              0.0690970
    242.1450000              0.2374520
     77.3349000              0.4830340
     26.2470000              0.3398560
SP   6   1.00
    491.7650000             -0.0022974              0.0039894
    116.9840000             -0.0307140              0.0303180
     37.4153000             -0.1125280              0.1298800
     13.7834000              0.0450160              0.3279510
      5.4521500              0.5893530              0.4535270
      2.2258800              0.4652060              0.2521540
SP   3   1.00
      3.1864900             -0.2518300             -0.0142990
      1.1442700              0.0615890              0.3235720
      0.4203770              1.0601800              0.7435070
SP   1   1.00
      0.1426570              1.0000000              1.0000000
D    1   1.00
      1.5000000              1.0000000
D    1   1.00
      0.3750000              1.0000000
F    1   1.00
      0.7000000              1.0000000
****
}

set {
reference uhf
freeze_core true
e_convergence 10
d_convergence 10
dft_spherical_points 1202
dft_radial_points 99
}

e = energy('b3lyp')

print_out('Grab this energy {0}'.format(e))
--------------------------------------------------------------------------

    Molecular point group: c1

    Geometry (in Bohr), charge = 0, multiplicity = 2:

       Center              X                  Y                   Z               Mass
    ------------   -----------------  -----------------  -----------------  -----------------
         C           -0.323340358287    -0.000699670021    -0.000205912254    12.000000000000
         C            0.060092836413    -1.401263933821    -2.425205025954    12.000000000000
         C            0.061187087413     2.803556517179     0.000188012046    12.000000000000
         C            0.062020801813    -1.401027339121     2.425174402946    12.000000000000
         H            2.084082708313    -1.642767241521    -2.842745923154     1.007825032230
         H           -0.766225623287    -0.389611091421    -4.027797617354     1.007825032230
         H           -0.767453926187    -3.294137996621    -2.352531719954     1.007825032230
         H            2.086876362713     3.286949810479     0.001892943346     1.007825032230
         H           -0.766737408687     3.680540826979     1.676120110446     1.007825032230
         H           -0.764811588787     3.677704433979    -1.677182766154     1.007825032230
         H            2.089697021513    -1.646441824121     2.852897809846     1.007825032230
         H           -0.763653511087    -3.290872201221     2.346197506146     1.007825032230
         H           -0.764346119887    -0.388098911821     4.023727414446     1.007825032230

  Charge       = 0
  Multiplicity = 2
  Basis Set: ANONYMOUS2F7E83C3
    Blend: 6-31G_2DFP_
  Basis Set: (ANONYMOUS2F7E83C3 AUX)
    Blend: DEF2-UNIVERSAL-JKFIT

    Orbital Energies [Eh]
    ---------------------

    Alpha Occupied:

       1A    -10.180342     2A    -10.167070     3A    -10.167011
       4A    -10.166964     5A     -0.797767     6A     -0.686225
       7A     -0.686150     8A     -0.530776     9A     -0.441125
      10A     -0.434790    11A     -0.434553    12A     -0.382841
      13A     -0.382355    14A     -0.363612    15A     -0.338257
      16A     -0.337740    17A     -0.168961

    Alpha Virtual:

      18A      0.076073    19A      0.134102    20A      0.134206
      21A      0.142412    22A      0.142844    23A      0.154880
      24A      0.178617    25A      0.178936    26A      0.203549
      27A      0.214802    28A      0.275761    29A      0.276211
      30A      0.399100    31A      0.399353    32A      0.403346
      33A      0.423986    34A      0.424210    35A      0.456595
      36A      0.495363    37A      0.495414    38A      0.512161
      39A      0.513982    40A      0.578679    41A      0.578939
      42A      0.591360    43A      0.591892    44A      0.602604
      45A      0.624763    46A      0.631744    47A      0.636006
      48A      0.636521    49A      0.663339    50A      0.663487
      51A      0.683736    52A      0.683967    53A      0.734993
      54A      0.825325    55A      0.825489    56A      0.853915
      57A      0.914705    58A      0.915343    59A      0.944109
      60A      0.944613    61A      0.961213    62A      0.961395
      63A      1.003450    64A      1.127690    65A      1.128523
      66A      1.142210    67A      1.162935    68A      1.163617
      69A      1.223325    70A      1.274160    71A      1.274790
      72A      1.279389    73A      1.324259    74A      1.324450
      75A      1.355974    76A      1.365907    77A      1.366219
      78A      1.392445    79A      1.403524    80A      1.404561
      81A      1.416735    82A      1.417468    83A      1.427938
      84A      1.491498    85A      1.499062    86A      1.542751
      87A      1.542919    88A      1.573929    89A      1.574975
      90A      1.669826    91A      1.739249    92A      1.739579
      93A      1.768328    94A      1.830742    95A      1.832062
      96A      1.971723    97A      2.018161    98A      2.018635
      99A      2.019601   100A      2.051831   101A      2.053460
     102A      2.738367   103A      2.738607   104A      2.790926
     105A      2.811428   106A      2.889774   107A      2.890096
     108A      2.894984   109A      2.929180   110A      2.929808
     111A      2.958988   112A      2.964177   113A      2.964584
     114A      3.034003   115A      3.070627   116A      3.071943
     117A      3.084352   118A      3.168470   119A      3.169078
     120A      3.180600   121A      3.285196   122A      3.285435
     123A      3.326266   124A      3.328062   125A      3.375614
     126A      3.489045   127A      3.491261   128A      3.514008
     129A      3.525336   130A      3.568148   131A      3.568492
     132A      3.575290   133A      3.665558   134A      3.667159
     135A      3.679678   136A      3.693472   137A      3.694770
     138A      3.776594   139A      3.776997   140A      3.789174
     141A      3.911463   142A      3.912997   143A      4.034446
     144A      4.111165   145A      4.111569   146A      4.147809
     147A      4.148417   148A      4.173249   149A      4.201976
     150A      4.203050   151A      4.203793   152A      4.210851
     153A      4.315198   154A      4.316703   155A      4.358980
     156A      4.423544   157A      4.425298   158A      4.443513
     159A      4.515952   160A      4.517700   161A      4.578247
     162A      4.578302   163A      4.617588   164A      4.709399
     165A      4.773900   166A      4.775270   167A      4.836929
     168A      4.962831   169A      5.002066   170A      5.003885
     171A      5.228065   172A      5.246229   173A      5.247395
     174A      5.355421   175A      5.355596   176A      5.479344

    Beta Occupied:

       1A    -10.167825     2A    -10.167772     3A    -10.167727
       4A    -10.166520     5A     -0.781092     6A     -0.684028
       7A     -0.683952     8A     -0.511747     9A     -0.431171
      10A     -0.430914    11A     -0.421823    12A     -0.376940
      13A     -0.376425    14A     -0.362596    15A     -0.333374
      16A     -0.332869

    Beta Virtual:

      17A     -0.025743    18A      0.077082    19A      0.135002
      20A      0.135086    21A      0.144309    22A      0.144689
      23A      0.163339    24A      0.182291    25A      0.182605
      26A      0.215032    27A      0.218930    28A      0.282117
      29A      0.282550    30A      0.400275    31A      0.400519
      32A      0.419792    33A      0.426795    34A      0.427023
      35A      0.468502    36A      0.497618    37A      0.497682
      38A      0.513896    39A      0.556326    40A      0.584222
      41A      0.584498    42A      0.597537    43A      0.598078
      44A      0.610022    45A      0.628138    46A      0.631913
      47A      0.639283    48A      0.639803    49A      0.666893
      50A      0.667060    51A      0.686389    52A      0.686585
      53A      0.757516    54A      0.830492    55A      0.830658
      56A      0.855269    57A      0.922703    58A      0.923289
      59A      0.945948    60A      0.953538    61A      0.966533
      62A      0.966686    63A      1.008691    64A      1.131766
      65A      1.132506    66A      1.155575    67A      1.167976
      68A      1.168732    69A      1.232297    70A      1.279756
      71A      1.280390    72A      1.285141    73A      1.329254
      74A      1.329434    75A      1.365377    76A      1.371177
      77A      1.371450    78A      1.393504    79A      1.406998
      80A      1.408015    81A      1.421793    82A      1.422488
      83A      1.428228    84A      1.492546    85A      1.509502
      86A      1.547106    87A      1.547388    88A      1.581713
      89A      1.582931    90A      1.674673    91A      1.745010
      92A      1.745342    93A      1.779107    94A      1.834608
      95A      1.835907    96A      1.972583    97A      2.024902
      98A      2.026008    99A      2.039657   100A      2.058547
     101A      2.060183   102A      2.746723   103A      2.746923
     104A      2.811840   105A      2.816061   106A      2.902448
     107A      2.902832   108A      2.924651   109A      2.931684
     110A      2.932273   111A      2.960056   112A      2.968714
     113A      2.969131   114A      3.041938   115A      3.080493
     116A      3.081894   117A      3.086172   118A      3.184175
     119A      3.184828   120A      3.188325   121A      3.289957
     122A      3.290271   123A      3.330082   124A      3.331853
     125A      3.383433   126A      3.491791   127A      3.493976
     128A      3.512375   129A      3.528381   130A      3.574882
     131A      3.581640   132A      3.581946   133A      3.670291
     134A      3.671935   135A      3.692963   136A      3.725336
     137A      3.726177   138A      3.781082   139A      3.781567
     140A      3.817704   141A      3.921328   142A      3.922765
     143A      4.045334   144A      4.117906   145A      4.118460
     146A      4.155084   147A      4.155560   148A      4.187306
     149A      4.208325   150A      4.209436   151A      4.210898
     152A      4.215328   153A      4.322619   154A      4.324163
     155A      4.362341   156A      4.431790   157A      4.433450
     158A      4.446431   159A      4.523750   160A      4.525482
     161A      4.588825   162A      4.588926   163A      4.624781
     164A      4.719743   165A      4.780833   166A      4.782244
     167A      4.839848   168A      4.967627   169A      5.006126
     170A      5.007903   171A      5.233780   172A      5.248017
     173A      5.249175   174A      5.361886   175A      5.362092
     176A      5.481665

    Final Occupation by Irrep:
              A
    DOCC [    16 ]
    SOCC [     1 ]

  @DF-UKS Final Energy:  -157.81306534778045

   => Energetics <=

    Nuclear Repulsion Energy =            125.3945985907825218
    One-Electron Energy =                -458.7488476498482441
    Two-Electron Energy =                 195.8483272097966505
    DFT Exchange-Correlation Energy =     -20.3071434985113548
    Empirical Dispersion Energy =           0.0000000000000000
    VV10 Nonlocal Energy =                  0.0000000000000000
    Total Energy =                       -157.8130653477804515

  UHF NO Occupations:
  HONO-2 :   15  A 1.9996008
  HONO-1 :   16  A 1.9989805
  HONO-0 :   17  A 1.0000000
  LUNO+0 :   18  A 0.0010195
  LUNO+1 :   19  A 0.0003992
  LUNO+2 :   20  A 0.0001979
  LUNO+3 :   21  A 0.0001971

Computation Completed

Properties will be evaluated at   0.000000,   0.000000,   0.000000 [a0]

Properties computed using the SCF density matrix

  Nuclear Dipole Moment: [e a0]
     X:     0.8272      Y:    -0.0033      Z:     0.0003

  Electronic Dipole Moment: [e a0]
     X:    -0.7493      Y:     0.0034      Z:    -0.0011

  Dipole Moment: [e a0]
     X:     0.0779      Y:     0.0001      Z:    -0.0008     Total:     0.0779

  Dipole Moment: [D]
     X:     0.1980      Y:     0.0002      Z:    -0.0019     Total:     0.1980

*** tstop() called on n059 at Fri Nov  5 13:01:03 2021
Module time:
	user time   =     583.45 seconds =       9.72 minutes
	system time =      13.31 seconds =       0.22 minutes
	total time  =        150 seconds =       2.50 minutes
Total time:
	user time   =     583.45 seconds =       9.72 minutes
	system time =      13.31 seconds =       0.22 minutes
	total time  =        150 seconds =       2.50 minutes
Grab this energy -157.81306534778045
    Psi4 stopped on: Friday, 05 November 2021 01:01PM
    Psi4 wall time for execution: 0:02:30.13

*** Psi4 exiting successfully. Buy a developer a beer!
