                               Psi4 1.4a2.dev629

  ==> Input File <==

--------------------------------------------------------------------------
import os
memory 14 GB

molecule {
 C   -0.3233395386   -0.0004356929    0.0000000000
 C    0.0612960806   -1.4018932571   -2.4257332900
 C    0.0607107028    2.8018654386    0.0000000000
 C    0.0612960806   -1.4018932571    2.4257332900
 H    2.0864819004   -1.6467215079   -2.8459321423
 H   -0.7680081796   -0.3863845983   -4.0273578248
 H   -0.7626187540   -3.2901750350   -2.3490502543
 H    2.0877103308    3.2880926716    0.0000000000
 H   -0.7659957333    3.6804010329    1.6755842446
 H   -0.7659957333    3.6804010329   -1.6755842446
 H    2.0864819004   -1.6467215079    2.8459321423
 H   -0.7626187540   -3.2901750350    2.3490502543
 H   -0.7680081796   -0.3863845983    4.0273578248
units bohr
0 2
}

basis {

assign 6-31g_2dfp_

[ 6-31g_2dfp_ ]

spherical

!----------------------------------------------------------------------
! Basis Set Exchange
! Version v0.8.13
! https://www.basissetexchange.org
!----------------------------------------------------------------------
!   Basis set: 6-31G(2df,p)
! Description: 6-31G(2df,p)
!        Role: orbital
!     Version: 0  (Data from the original Basis Set Exchange)
!----------------------------------------------------------------------

****
H     0
S    3   1.00
     18.7311370              0.03349460
      2.8253937              0.23472695
      0.6401217              0.81375733
S    1   1.00
      0.1612778              1.00000000
P    1   1.00
      1.5000000              1.0000000
P    1   1.00
      0.3750000              1.0000000
****
B     0
S    6   1.00
   2068.8823000              0.0018663
    310.6495700              0.0142515
     70.6830330              0.0695516
     19.8610800              0.2325729
      6.2993048              0.4670787
      2.1270270              0.3634314
SP   3   1.00
      4.7279710             -0.1303938              0.0745976
      1.1903377             -0.1307889              0.3078467
      0.3594117              1.1309444              0.7434568
SP   1   1.00
      0.1267512              1.0000000              1.0000000
D    1   1.00
      0.8020000              1.0000000
D    1   1.00
      0.2005000              1.0000000
F    1   1.00
      0.5000000              1.0000000
****
C     0
S    6   1.00
   3047.5249000              0.0018347
    457.3695100              0.0140373
    103.9486900              0.0688426
     29.2101550              0.2321844
      9.2866630              0.4679413
      3.1639270              0.3623120
SP   3   1.00
      7.8682724             -0.1193324              0.0689991
      1.8812885             -0.1608542              0.3164240
      0.5442493              1.1434564              0.7443083
SP   1   1.00
      0.1687144              1.0000000              1.0000000
D    1   1.00
      1.2520000              1.0000000
D    1   1.00
      0.3130000              1.0000000
F    1   1.00
      0.8000000              1.0000000
****
N     0
S    6   1.00
   4173.5110000              0.0018348
    627.4579000              0.0139950
    142.9021000              0.0685870
     40.2343300              0.2322410
     12.8202100              0.4690700
      4.3904370              0.3604550
SP   3   1.00
     11.6263580             -0.1149610              0.0675800
      2.7162800             -0.1691180              0.3239070
      0.7722180              1.1458520              0.7408950
SP   1   1.00
      0.2120313              1.0000000              1.0000000
D    1   1.00
      1.8260000              1.0000000
D    1   1.00
      0.4565000              1.0000000
F    1   1.00
      1.0000000              1.0000000
****
O     0
S    6   1.00
   5484.6717000              0.0018311
    825.2349500              0.0139501
    188.0469600              0.0684451
     52.9645000              0.2327143
     16.8975700              0.4701930
      5.7996353              0.3585209
SP   3   1.00
     15.5396160             -0.1107775              0.0708743
      3.5999336             -0.1480263              0.3397528
      1.0137618              1.1307670              0.7271586
SP   1   1.00
      0.2700058              1.0000000              1.0000000
D    1   1.00
      2.5840000              1.0000000
D    1   1.00
      0.6460000              1.0000000
F    1   1.00
      1.4000000              1.0000000
****
F     0
S    6   1.00
   7001.7130900              0.0018196169
   1051.3660900              0.0139160796
    239.2856900              0.0684053245
     67.3974453              0.233185760
     21.5199573              0.471267439
      7.40310130             0.356618546
SP   3   1.00
     20.8479528             -0.108506975            0.0716287243
      4.80830834            -0.146451658            0.3459121030
      1.34406986             1.128688580            0.7224699570
SP   1   1.00
      0.358151393            1.0000000              1.0000000
D    1   1.00
      3.5000000              1.0000000
D    1   1.00
      0.8750000              1.0000000
F    1   1.00
      1.8500000              1.0000000
****
Al     0
S    6   1.00
  13983.1000000              0.00194267
   2098.7500000              0.0148599
    477.7050000              0.0728494
    134.3600000              0.2468300
     42.8709000              0.4872580
     14.5189000              0.3234960
SP   6   1.00
    239.6680000             -0.00292619             0.00460285
     57.4419000             -0.0374080              0.0331990
     18.2859000             -0.1144870              0.1362820
      6.5991400              0.1156350              0.3304760
      2.4904900              0.6125950              0.4491460
      0.9445400              0.3937990              0.2657040
SP   3   1.00
      1.2779000             -0.2276060             -0.0175130
      0.3975900              0.00144583             0.2445330
      0.1600950              1.0927900              0.8049340
SP   1   1.00
      0.0556577              1.0000000              1.0000000
D    1   1.00
      0.6500000              1.0000000
D    1   1.00
      0.1625000              1.0000000
F    1   1.00
      0.2500000              1.0000000
****
Si     0
S    6   1.00
  16115.9000000              0.00195948
   2425.5800000              0.01492880
    553.8670000              0.07284780
    156.3400000              0.24613000
     50.0683000              0.48591400
     17.0178000              0.32500200
SP   6   1.00
    292.7180000             -0.00278094             0.00443826
     69.8731000             -0.03571460             0.03266790
     22.3363000             -0.11498500             0.13472100
      8.1503900              0.09356340             0.32867800
      3.1345800              0.60301700             0.44964000
      1.2254300              0.41895900             0.26137200
SP   3   1.00
      1.7273800             -0.24463000            -0.01779510
      0.5729220              0.00431572             0.25353900
      0.2221920              1.09818000             0.80066900
SP   1   1.00
      0.0778369              1.00000000             1.00000000
D    1   1.00
      0.9000000              1.0000000
D    1   1.00
      0.2250000              1.0000000
F    1   1.00
      0.3200000              1.0000000
****
P     0
S    6   1.00
  19413.3000000              0.0018516
   2909.4200000              0.0142062
    661.3640000              0.0699995
    185.7590000              0.2400790
     59.1943000              0.4847620
     20.0310000              0.3352000
SP   6   1.00
    339.4780000             -0.00278217             0.00456462
     81.0101000             -0.0360499              0.03369360
     25.8780000             -0.1166310              0.13975500
      9.4522100              0.0968328              0.33936200
      3.6656600              0.6144180              0.45092100
      1.4674600              0.4037980              0.23858600
SP   3   1.00
      2.1562300             -0.2529230             -0.01776530
      0.7489970              0.0328517              0.27405800
      0.2831450              1.0812500              0.78542100
SP   1   1.00
      0.0998317              1.0000000              1.00000000
D    1   1.00
      1.1000000              1.0000000
D    1   1.00
      0.2750000              1.0000000
F    1   1.00
      0.4500000              1.0000000
****
S     0
S    6   1.00
  21917.1000000              0.0018690
   3301.4900000              0.0142300
    754.1460000              0.0696960
    212.7110000              0.2384870
     67.9896000              0.4833070
     23.0515000              0.3380740
SP   6   1.00
    423.7350000             -0.0023767              0.0040610
    100.7100000             -0.0316930              0.0306810
     32.1599000             -0.1133170              0.1304520
     11.8079000              0.0560900              0.3272050
      4.6311000              0.5922550              0.4528510
      1.8702500              0.4550060              0.2560420
SP   3   1.00
      2.6158400             -0.2503740             -0.0145110
      0.9221670              0.0669570              0.3102630
      0.3412870              1.0545100              0.7544830
SP   1   1.00
      0.1171670              1.0000000              1.0000000
D    1   1.00
      1.3000000              1.0000000
D    1   1.00
      0.3250000              1.0000000
F    1   1.00
      0.5500000              1.0000000
****
Cl     0
S    6   1.00
  25180.1000000              0.0018330
   3780.3500000              0.0140340
    860.4740000              0.0690970
    242.1450000              0.2374520
     77.3349000              0.4830340
     26.2470000              0.3398560
SP   6   1.00
    491.7650000             -0.0022974              0.0039894
    116.9840000             -0.0307140              0.0303180
     37.4153000             -0.1125280              0.1298800
     13.7834000              0.0450160              0.3279510
      5.4521500              0.5893530              0.4535270
      2.2258800              0.4652060              0.2521540
SP   3   1.00
      3.1864900             -0.2518300             -0.0142990
      1.1442700              0.0615890              0.3235720
      0.4203770              1.0601800              0.7435070
SP   1   1.00
      0.1426570              1.0000000              1.0000000
D    1   1.00
      1.5000000              1.0000000
D    1   1.00
      0.3750000              1.0000000
F    1   1.00
      0.7000000              1.0000000
****
}

set {
reference uhf
freeze_core true
e_convergence 10
d_convergence 10
dft_spherical_points 1202
dft_radial_points 99
}

e = energy('b3lyp')

print_out('Grab this energy {0}'.format(e))
--------------------------------------------------------------------------

    Molecular point group: cs

    Geometry (in Bohr), charge = 0, multiplicity = 2:

       Center              X                  Y                   Z               Mass
    ------------   -----------------  -----------------  -----------------  -----------------
         C           -0.323340176175     0.000018667048     0.000000000000    12.000000000000
         C            0.061295443025    -1.401438897152    -2.425733290000    12.000000000000
         C            0.060710065225     2.802319798548     0.000000000000    12.000000000000
         C            0.061295443025    -1.401438897152     2.425733290000    12.000000000000
         H            2.086481262825    -1.646267147952    -2.845932142300     1.007825032230
         H           -0.768008817175    -0.385930238352    -4.027357824800     1.007825032230
         H           -0.762619391575    -3.289720675052    -2.349050254300     1.007825032230
         H            2.087709693225     3.288547031548     0.000000000000     1.007825032230
         H           -0.765996370875     3.680855392848     1.675584244600     1.007825032230
         H           -0.765996370875     3.680855392848    -1.675584244600     1.007825032230
         H            2.086481262825    -1.646267147952     2.845932142300     1.007825032230
         H           -0.762619391575    -3.289720675052     2.349050254300     1.007825032230
         H           -0.768008817175    -0.385930238352     4.027357824800     1.007825032230

  Charge       = 0
  Multiplicity = 2
  Basis Set: ANONYMOUS7813DAD0
    Blend: 6-31G_2DFP_
  Basis Set: (ANONYMOUS7813DAD0 AUX)
    Blend: DEF2-UNIVERSAL-JKFIT

    Orbital Energies [Eh]
    ---------------------

    Alpha Occupied:

       1Ap   -10.180342     1App  -10.167033     2Ap   -10.167027
       3Ap   -10.166984     4Ap    -0.797766     5Ap    -0.686247
       2App   -0.686128     6Ap    -0.530778     7Ap    -0.441125
       3App   -0.434859     8Ap    -0.434480     4App   -0.382621
       9Ap    -0.382577     5App   -0.363612    10Ap    -0.338161
       6App   -0.337835    11Ap    -0.168961

    Alpha Virtual:

      12Ap     0.076070     7App    0.134041    13Ap     0.134267
      14Ap     0.142421     8App    0.142833    15Ap     0.154882
      16Ap     0.178686     9App    0.178870    17Ap     0.203547
      10App    0.214804    18Ap     0.275877    11App    0.276095
      12App    0.398985    19Ap     0.399471    20Ap     0.403345
      13App    0.423935    21Ap     0.424259    22Ap     0.456593
      14App    0.495339    23Ap     0.495441    15App    0.512161
      24Ap     0.513979    25Ap     0.578755    16App    0.578879
      26Ap     0.591489    17App    0.591775    27Ap     0.602570
      28Ap     0.624716    18App    0.631770    29Ap     0.636016
      19App    0.636529    30Ap     0.663201    20App    0.663623
      21App    0.683665    31Ap     0.684055    32Ap     0.734994
      33Ap     0.825157    22App    0.825657    23App    0.853915
      24App    0.914809    34Ap     0.915242    25App    0.944125
      35Ap     0.944608    26App    0.961200    36Ap     0.961388
      37Ap     1.003456    27App    1.127839    38Ap     1.128388
      39Ap     1.142221    28App    1.163215    40Ap     1.163323
      41Ap     1.223322    42Ap     1.274244    29App    1.274735
      43Ap     1.279355    44Ap     1.324142    30App    1.324562
      45Ap     1.355990    46Ap     1.365760    31App    1.366348
      32App    1.392449    47Ap     1.404005    33App    1.404094
      34App    1.416408    48Ap     1.417809    35App    1.427900
      36App    1.491498    49Ap     1.499071    37App    1.542816
      50Ap     1.542855    51Ap     1.574236    38App    1.574661
      52Ap     1.669831    53Ap     1.738700    39App    1.740129
      54Ap     1.768321    40App    1.830600    55Ap     1.832174
      41App    1.971753    56Ap     2.017507    57Ap     2.019238
      42App    2.019635    58Ap     2.052126    43App    2.053167
      59Ap     2.738303    44App    2.738665    60Ap     2.790923
      45App    2.811426    61Ap     2.889803    46App    2.890105
      62Ap     2.894939    63Ap     2.929468    47App    2.929524
      48App    2.958961    64Ap     2.964313    49App    2.964476
      65Ap     3.034009    50App    3.070665    66Ap     3.071846
      51App    3.084432    67Ap     3.168362    52App    3.169201
      68Ap     3.180587    53App    3.285151    69Ap     3.285470
      70Ap     3.326775    54App    3.327549    71Ap     3.375627
      55App    3.489878    72Ap     3.490454    56App    3.514018
      73Ap     3.525329    57App    3.567945    74Ap     3.568837
      58App    3.575119    75Ap     3.665900    59App    3.666914
      76Ap     3.679639    60App    3.693883    77Ap     3.694383
      78Ap     3.776662    61App    3.776922    79Ap     3.789126
      62App    3.911644    80Ap     3.912799    81Ap     4.034445
      82Ap     4.110820    63App    4.111856    64App    4.147854
      83Ap     4.148316    84Ap     4.173336    65App    4.202171
      85Ap     4.202655    86Ap     4.203909    66App    4.210961
      67App    4.315313    87Ap     4.316621    68App    4.358976
      88Ap     4.423918    69App    4.424998    70App    4.443449
      89Ap     4.515787    71App    4.517889    90Ap     4.578268
      72App    4.578272    91Ap     4.617546    92Ap     4.709429
      93Ap     4.773633    73App    4.775576    74App    4.836906
      94Ap     4.962864    95Ap     5.002587    75App    5.003329
      96Ap     5.227585    76App    5.246680    97Ap     5.247342
      98Ap     5.354273    77App    5.356763    78App    5.479412

    Beta Occupied:

       1App  -10.167786     1Ap   -10.167781     2Ap   -10.167757
       3Ap   -10.166519     4Ap    -0.781091     5Ap    -0.684052
       2App   -0.683929     6Ap    -0.511749     3App   -0.431230
       7Ap    -0.430854     8Ap    -0.421820     4App   -0.376702
       9Ap    -0.376666     5App   -0.362596    10Ap    -0.333280
       6App   -0.332963

    Beta Virtual:

      11Ap    -0.025742    12Ap     0.077079     7App    0.134906
      13Ap     0.135183    14Ap     0.144265     8App    0.144731
      15Ap     0.163340    16Ap     0.182357     9App    0.182541
      10App    0.215033    17Ap     0.218930    18Ap     0.282226
      11App    0.282442    12App    0.400149    19Ap     0.400646
      20Ap     0.419791    13App    0.426745    21Ap     0.427070
      22Ap     0.468501    14App    0.497594    23Ap     0.497707
      15App    0.513896    24Ap     0.556325    25Ap     0.584307
      16App    0.584427    26Ap     0.597644    17App    0.597978
      27Ap     0.609995    28Ap     0.628094    18App    0.631927
      29Ap     0.639321    19App    0.639793    30Ap     0.666779
      20App    0.667173    21App    0.686322    31Ap     0.686668
      32Ap     0.757518    33Ap     0.830337    22App    0.830814
      23App    0.855268    24App    0.922800    34Ap     0.923194
      25App    0.945962    35Ap     0.953535    26App    0.966488
      36Ap     0.966713    37Ap     1.008696    27App    1.131871
      38Ap     1.132413    39Ap     1.155600    28App    1.168292
      40Ap     1.168391    41Ap     1.232295    42Ap     1.279822
      29App    1.280349    43Ap     1.285110    44Ap     1.329133
      30App    1.329550    45Ap     1.365406    46Ap     1.371067
      31App    1.371528    32App    1.393508    47Ap     1.407452
      33App    1.407578    34App    1.421507    48Ap     1.422811
      35App    1.428169    36App    1.492548    49Ap     1.509514
      37App    1.547198    50Ap     1.547290    51Ap     1.582107
      38App    1.582529    52Ap     1.674678    53Ap     1.744450
      39App    1.745905    54Ap     1.779099    40App    1.834450
      55Ap     1.836034    41App    1.972614    56Ap     2.024846
      42App    2.026012    57Ap     2.039687    58Ap     2.058841
      43App    2.059894    59Ap     2.746628    44App    2.747012
      45App    2.811838    60Ap     2.816059    61Ap     2.902449
      46App    2.902835    62Ap     2.924649    47App    2.931959
      63Ap     2.931992    48App    2.960037    64Ap     2.968851
      49App    2.969014    65Ap     3.041944    50App    3.080467
      66Ap     3.081755    51App    3.086358    67Ap     3.184138
      52App    3.184921    68Ap     3.188273    53App    3.289939
      69Ap     3.290280    70Ap     3.330545    54App    3.331387
      71Ap     3.383446    55App    3.492621    72Ap     3.493171
      56App    3.512382    73Ap     3.528375    57App    3.574981
      58App    3.581206    74Ap     3.582256    75Ap     3.670774
      59App    3.671527    76Ap     3.692945    60App    3.725705
      77Ap     3.725821    78Ap     3.781163    61App    3.781478
      79Ap     3.817666    62App    3.921394    80Ap     3.922681
      81Ap     4.045333    82Ap     4.117428    63App    4.118884
      64App    4.154827    83Ap     4.155774    84Ap     4.187374
      65App    4.208125    85Ap     4.209819    86Ap     4.210628
      66App    4.215445    67App    4.322798    87Ap     4.324021
      68App    4.362337    88Ap     4.432155    69App    4.433188
      70App    4.446333    89Ap     4.523570    71App    4.525686
      90Ap     4.588838    72App    4.588906    91Ap     4.624738
      92Ap     4.719773    93Ap     4.780614    73App    4.782502
      74App    4.839822    94Ap     4.967659    95Ap     5.006629
      75App    5.007366    96Ap     5.233196    76App    5.248479
      97Ap     5.249221    98Ap     5.360763    77App    5.363229
      78App    5.481735

    Final Occupation by Irrep:
             Ap   App
    DOCC [    10,    6 ]
    SOCC [     1,    0 ]

  @DF-UKS Final Energy:  -157.81306143427153

   => Energetics <=

    Nuclear Repulsion Energy =            125.3946214098415766
    One-Electron Energy =                -458.7488830736005525
    Two-Electron Energy =                 195.8483456388532034
    DFT Exchange-Correlation Energy =     -20.3071454093657806
    Empirical Dispersion Energy =           0.0000000000000000
    VV10 Nonlocal Energy =                  0.0000000000000000
    Total Energy =                       -157.8130614342715319

  UHF NO Occupations:
  HONO-2 :    9 Ap 1.9996009
  HONO-1 :   10 Ap 1.9989805
  HONO-0 :   11 Ap 1.0000000
  LUNO+0 :   12 Ap 0.0010195
  LUNO+1 :   13 Ap 0.0003991
  LUNO+2 :    7App 0.0001976
  LUNO+3 :   14 Ap 0.0001975

Computation Completed

Properties will be evaluated at   0.000000,   0.000000,   0.000000 [a0]

Properties computed using the SCF density matrix

  Nuclear Dipole Moment: [e a0]
     X:     0.8272      Y:     0.0032      Z:     0.0000

  Electronic Dipole Moment: [e a0]
     X:    -0.7493      Y:    -0.0049      Z:     0.0000

  Dipole Moment: [e a0]
     X:     0.0779      Y:    -0.0017      Z:     0.0000     Total:     0.0779

  Dipole Moment: [D]
     X:     0.1980      Y:    -0.0044      Z:     0.0000     Total:     0.1981

*** tstop() called on n071 at Fri Nov  5 14:22:42 2021
Module time:
	user time   =     546.61 seconds =       9.11 minutes
	system time =      12.57 seconds =       0.21 minutes
	total time  =        141 seconds =       2.35 minutes
Total time:
	user time   =     546.61 seconds =       9.11 minutes
	system time =      12.57 seconds =       0.21 minutes
	total time  =        141 seconds =       2.35 minutes
Grab this energy -157.81306143427153
    Psi4 stopped on: Friday, 05 November 2021 02:22PM
    Psi4 wall time for execution: 0:02:21.02

*** Psi4 exiting successfully. Buy a developer a beer!
