                               Psi4 1.4a2.dev629

  ==> Input File <==

--------------------------------------------------------------------------
import os
memory 14 GB

molecule {
 C   -0.3233405172    0.0002554837   -0.0002248827
 C    0.0620193579   -1.4002586202   -2.4244638368
 C    0.0589708430    2.8017678871   -0.0004832318
 C    0.0623109620   -1.4026425025    2.4276250871
 H    2.0867639273   -1.6442983244   -2.8480104997
 H   -0.7655261752   -0.3886115542   -4.0258745958
 H   -0.7658645549   -3.2920056349   -2.3496756151
 H    2.0870018359    3.2880961593    0.0001860995
 H   -0.7649441752    3.6802543112    1.6768007085
 H   -0.7650675822    3.6802783399   -1.6766163510
 H    2.0869055582   -1.6435490362    2.8470818173
 H   -0.7661486704   -3.2915908035    2.3486073882
 H   -0.7656886859   -0.3877200188    4.0250479122
units bohr
0 2
}

basis {

assign 6-31g_2dfp_

[ 6-31g_2dfp_ ]

spherical

!----------------------------------------------------------------------
! Basis Set Exchange
! Version v0.8.13
! https://www.basissetexchange.org
!----------------------------------------------------------------------
!   Basis set: 6-31G(2df,p)
! Description: 6-31G(2df,p)
!        Role: orbital
!     Version: 0  (Data from the original Basis Set Exchange)
!----------------------------------------------------------------------

****
H     0
S    3   1.00
     18.7311370              0.03349460
      2.8253937              0.23472695
      0.6401217              0.81375733
S    1   1.00
      0.1612778              1.00000000
P    1   1.00
      1.5000000              1.0000000
P    1   1.00
      0.3750000              1.0000000
****
B     0
S    6   1.00
   2068.8823000              0.0018663
    310.6495700              0.0142515
     70.6830330              0.0695516
     19.8610800              0.2325729
      6.2993048              0.4670787
      2.1270270              0.3634314
SP   3   1.00
      4.7279710             -0.1303938              0.0745976
      1.1903377             -0.1307889              0.3078467
      0.3594117              1.1309444              0.7434568
SP   1   1.00
      0.1267512              1.0000000              1.0000000
D    1   1.00
      0.8020000              1.0000000
D    1   1.00
      0.2005000              1.0000000
F    1   1.00
      0.5000000              1.0000000
****
C     0
S    6   1.00
   3047.5249000              0.0018347
    457.3695100              0.0140373
    103.9486900              0.0688426
     29.2101550              0.2321844
      9.2866630              0.4679413
      3.1639270              0.3623120
SP   3   1.00
      7.8682724             -0.1193324              0.0689991
      1.8812885             -0.1608542              0.3164240
      0.5442493              1.1434564              0.7443083
SP   1   1.00
      0.1687144              1.0000000              1.0000000
D    1   1.00
      1.2520000              1.0000000
D    1   1.00
      0.3130000              1.0000000
F    1   1.00
      0.8000000              1.0000000
****
N     0
S    6   1.00
   4173.5110000              0.0018348
    627.4579000              0.0139950
    142.9021000              0.0685870
     40.2343300              0.2322410
     12.8202100              0.4690700
      4.3904370              0.3604550
SP   3   1.00
     11.6263580             -0.1149610              0.0675800
      2.7162800             -0.1691180              0.3239070
      0.7722180              1.1458520              0.7408950
SP   1   1.00
      0.2120313              1.0000000              1.0000000
D    1   1.00
      1.8260000              1.0000000
D    1   1.00
      0.4565000              1.0000000
F    1   1.00
      1.0000000              1.0000000
****
O     0
S    6   1.00
   5484.6717000              0.0018311
    825.2349500              0.0139501
    188.0469600              0.0684451
     52.9645000              0.2327143
     16.8975700              0.4701930
      5.7996353              0.3585209
SP   3   1.00
     15.5396160             -0.1107775              0.0708743
      3.5999336             -0.1480263              0.3397528
      1.0137618              1.1307670              0.7271586
SP   1   1.00
      0.2700058              1.0000000              1.0000000
D    1   1.00
      2.5840000              1.0000000
D    1   1.00
      0.6460000              1.0000000
F    1   1.00
      1.4000000              1.0000000
****
F     0
S    6   1.00
   7001.7130900              0.0018196169
   1051.3660900              0.0139160796
    239.2856900              0.0684053245
     67.3974453              0.233185760
     21.5199573              0.471267439
      7.40310130             0.356618546
SP   3   1.00
     20.8479528             -0.108506975            0.0716287243
      4.80830834            -0.146451658            0.3459121030
      1.34406986             1.128688580            0.7224699570
SP   1   1.00
      0.358151393            1.0000000              1.0000000
D    1   1.00
      3.5000000              1.0000000
D    1   1.00
      0.8750000              1.0000000
F    1   1.00
      1.8500000              1.0000000
****
Al     0
S    6   1.00
  13983.1000000              0.00194267
   2098.7500000              0.0148599
    477.7050000              0.0728494
    134.3600000              0.2468300
     42.8709000              0.4872580
     14.5189000              0.3234960
SP   6   1.00
    239.6680000             -0.00292619             0.00460285
     57.4419000             -0.0374080              0.0331990
     18.2859000             -0.1144870              0.1362820
      6.5991400              0.1156350              0.3304760
      2.4904900              0.6125950              0.4491460
      0.9445400              0.3937990              0.2657040
SP   3   1.00
      1.2779000             -0.2276060             -0.0175130
      0.3975900              0.00144583             0.2445330
      0.1600950              1.0927900              0.8049340
SP   1   1.00
      0.0556577              1.0000000              1.0000000
D    1   1.00
      0.6500000              1.0000000
D    1   1.00
      0.1625000              1.0000000
F    1   1.00
      0.2500000              1.0000000
****
Si     0
S    6   1.00
  16115.9000000              0.00195948
   2425.5800000              0.01492880
    553.8670000              0.07284780
    156.3400000              0.24613000
     50.0683000              0.48591400
     17.0178000              0.32500200
SP   6   1.00
    292.7180000             -0.00278094             0.00443826
     69.8731000             -0.03571460             0.03266790
     22.3363000             -0.11498500             0.13472100
      8.1503900              0.09356340             0.32867800
      3.1345800              0.60301700             0.44964000
      1.2254300              0.41895900             0.26137200
SP   3   1.00
      1.7273800             -0.24463000            -0.01779510
      0.5729220              0.00431572             0.25353900
      0.2221920              1.09818000             0.80066900
SP   1   1.00
      0.0778369              1.00000000             1.00000000
D    1   1.00
      0.9000000              1.0000000
D    1   1.00
      0.2250000              1.0000000
F    1   1.00
      0.3200000              1.0000000
****
P     0
S    6   1.00
  19413.3000000              0.0018516
   2909.4200000              0.0142062
    661.3640000              0.0699995
    185.7590000              0.2400790
     59.1943000              0.4847620
     20.0310000              0.3352000
SP   6   1.00
    339.4780000             -0.00278217             0.00456462
     81.0101000             -0.0360499              0.03369360
     25.8780000             -0.1166310              0.13975500
      9.4522100              0.0968328              0.33936200
      3.6656600              0.6144180              0.45092100
      1.4674600              0.4037980              0.23858600
SP   3   1.00
      2.1562300             -0.2529230             -0.01776530
      0.7489970              0.0328517              0.27405800
      0.2831450              1.0812500              0.78542100
SP   1   1.00
      0.0998317              1.0000000              1.00000000
D    1   1.00
      1.1000000              1.0000000
D    1   1.00
      0.2750000              1.0000000
F    1   1.00
      0.4500000              1.0000000
****
S     0
S    6   1.00
  21917.1000000              0.0018690
   3301.4900000              0.0142300
    754.1460000              0.0696960
    212.7110000              0.2384870
     67.9896000              0.4833070
     23.0515000              0.3380740
SP   6   1.00
    423.7350000             -0.0023767              0.0040610
    100.7100000             -0.0316930              0.0306810
     32.1599000             -0.1133170              0.1304520
     11.8079000              0.0560900              0.3272050
      4.6311000              0.5922550              0.4528510
      1.8702500              0.4550060              0.2560420
SP   3   1.00
      2.6158400             -0.2503740             -0.0145110
      0.9221670              0.0669570              0.3102630
      0.3412870              1.0545100              0.7544830
SP   1   1.00
      0.1171670              1.0000000              1.0000000
D    1   1.00
      1.3000000              1.0000000
D    1   1.00
      0.3250000              1.0000000
F    1   1.00
      0.5500000              1.0000000
****
Cl     0
S    6   1.00
  25180.1000000              0.0018330
   3780.3500000              0.0140340
    860.4740000              0.0690970
    242.1450000              0.2374520
     77.3349000              0.4830340
     26.2470000              0.3398560
SP   6   1.00
    491.7650000             -0.0022974              0.0039894
    116.9840000             -0.0307140              0.0303180
     37.4153000             -0.1125280              0.1298800
     13.7834000              0.0450160              0.3279510
      5.4521500              0.5893530              0.4535270
      2.2258800              0.4652060              0.2521540
SP   3   1.00
      3.1864900             -0.2518300             -0.0142990
      1.1442700              0.0615890              0.3235720
      0.4203770              1.0601800              0.7435070
SP   1   1.00
      0.1426570              1.0000000              1.0000000
D    1   1.00
      1.5000000              1.0000000
D    1   1.00
      0.3750000              1.0000000
F    1   1.00
      0.7000000              1.0000000
****
}

set {
reference uhf
freeze_core true
e_convergence 10
d_convergence 10
dft_spherical_points 1202
dft_radial_points 99
}

e = energy('b3lyp')

print_out('Grab this energy {0}'.format(e))
--------------------------------------------------------------------------

    Molecular point group: c1

    Geometry (in Bohr), charge = 0, multiplicity = 2:

       Center              X                  Y                   Z               Mass
    ------------   -----------------  -----------------  -----------------  -----------------
         C           -0.323340638647     0.000424974398    -0.000697374322    12.000000000000
         C            0.062019236453    -1.400089129502    -2.424936328422    12.000000000000
         C            0.058970721553     2.801937377798    -0.000955723422    12.000000000000
         C            0.062310840553    -1.402473011802     2.427152595478    12.000000000000
         H            2.086763805853    -1.644128833702    -2.848482991322     1.007825032230
         H           -0.765526296647    -0.388442063502    -4.026347087422     1.007825032230
         H           -0.765864676347    -3.291836144202    -2.350148106722     1.007825032230
         H            2.087001714453     3.288265649998    -0.000286392122     1.007825032230
         H           -0.764944296647     3.680423801898     1.676328216878     1.007825032230
         H           -0.765067703647     3.680447830598    -1.677088842622     1.007825032230
         H            2.086905436753    -1.643379545502     2.846609325678     1.007825032230
         H           -0.766148791847    -3.291421312802     2.348134896578     1.007825032230
         H           -0.765688807347    -0.387550528102     4.024575420578     1.007825032230

  Charge       = 0
  Multiplicity = 2
  Basis Set: ANONYMOUSBCE6BA52
    Blend: 6-31G_2DFP_
  Basis Set: (ANONYMOUSBCE6BA52 AUX)
    Blend: DEF2-UNIVERSAL-JKFIT

    Orbital Energies [Eh]
    ---------------------

    Alpha Occupied:

       1A    -10.180342     2A    -10.167058     3A    -10.167031
       4A    -10.166956     5A     -0.797766     6A     -0.686227
       7A     -0.686146     8A     -0.530776     9A     -0.441126
      10A     -0.434801    11A     -0.434540    12A     -0.382774
      13A     -0.382424    14A     -0.363613    15A     -0.338224
      16A     -0.337772    17A     -0.168961

    Alpha Virtual:

      18A      0.076073    19A      0.134117    20A      0.134193
      21A      0.142539    22A      0.142718    23A      0.154880
      24A      0.178638    25A      0.178919    26A      0.203545
      27A      0.214802    28A      0.275754    29A      0.276218
      30A      0.399072    31A      0.399380    32A      0.403349
      33A      0.424032    34A      0.424163    35A      0.456593
      36A      0.495353    37A      0.495425    38A      0.512160
      39A      0.513980    40A      0.578718    41A      0.578912
      42A      0.591499    43A      0.591769    44A      0.602574
      45A      0.624761    46A      0.631771    47A      0.636056
      48A      0.636443    49A      0.663234    50A      0.663592
      51A      0.683702    52A      0.684001    53A      0.734995
      54A      0.825351    55A      0.825465    56A      0.853916
      57A      0.915003    58A      0.915049    59A      0.944126
      60A      0.944613    61A      0.961214    62A      0.961368
      63A      1.003451    64A      1.127978    65A      1.128236
      66A      1.142226    67A      1.162964    68A      1.163576
      69A      1.223323    70A      1.274158    71A      1.274805
      72A      1.279378    73A      1.324096    74A      1.324618
      75A      1.355984    76A      1.365715    77A      1.366400
      78A      1.392445    79A      1.403841    80A      1.404259
      81A      1.416781    82A      1.417442    83A      1.427923
      84A      1.491490    85A      1.499081    86A      1.542743
      87A      1.542908    88A      1.574202    89A      1.574692
      90A      1.669823    91A      1.738981    92A      1.739858
      93A      1.768323    94A      1.830857    95A      1.831938
      96A      1.971731    97A      2.018075    98A      2.018398
      99A      2.019917   100A      2.051864   101A      2.053424
     102A      2.738356   103A      2.738613   104A      2.790925
     105A      2.811426   106A      2.889668   107A      2.890235
     108A      2.894949   109A      2.929431   110A      2.929563
     111A      2.958995   112A      2.964238   113A      2.964511
     114A      3.034009   115A      3.071090   116A      3.071470
     117A      3.084358   118A      3.168559   119A      3.168983
     120A      3.180607   121A      3.285279   122A      3.285351
     123A      3.326916   124A      3.327403   125A      3.375616
     126A      3.489694   127A      3.490619   128A      3.514017
     129A      3.525327   130A      3.568261   131A      3.568522
     132A      3.575141   133A      3.665638   134A      3.667116
     135A      3.679666   136A      3.694013   137A      3.694243
     138A      3.776611   139A      3.776991   140A      3.789121
     141A      3.911471   142A      3.912978   143A      4.034453
     144A      4.111193   145A      4.111552   146A      4.147823
     147A      4.148424   148A      4.173246   149A      4.202135
     150A      4.203106   151A      4.203555   152A      4.210860
     153A      4.315114   154A      4.316775   155A      4.358991
     156A      4.423495   157A      4.425321   158A      4.443522
     159A      4.515613   160A      4.518076   161A      4.578052
     162A      4.578496   163A      4.617538   164A      4.709446
     165A      4.773958   166A      4.775190   167A      4.836929
     168A      4.962829   169A      5.002106   170A      5.003824
     171A      5.228048   172A      5.246609   173A      5.247012
     174A      5.355236   175A      5.355776   176A      5.479348

    Beta Occupied:

       1A    -10.167814     2A    -10.167794     3A    -10.167717
       4A    -10.166519     5A     -0.781091     6A     -0.684033
       7A     -0.683945     8A     -0.511748     9A     -0.431177
      10A     -0.430908    11A     -0.421821    12A     -0.376877
      13A     -0.376491    14A     -0.362596    15A     -0.333348
      16A     -0.332894

    Beta Virtual:

      17A     -0.025743    18A      0.077081    19A      0.135020
      20A      0.135070    21A      0.144424    22A      0.144574
      23A      0.163339    24A      0.182315    25A      0.182585
      26A      0.215032    27A      0.218928    28A      0.282111
      29A      0.282556    30A      0.400241    31A      0.400554
      32A      0.419791    33A      0.426840    34A      0.426977
      35A      0.468501    36A      0.497612    37A      0.497687
      38A      0.513895    39A      0.556325    40A      0.584271
      41A      0.584460    42A      0.597674    43A      0.597953
      44A      0.609999    45A      0.628135    46A      0.631929
      47A      0.639343    48A      0.639726    49A      0.666809
      50A      0.667144    51A      0.686336    52A      0.686638
      53A      0.757518    54A      0.830515    55A      0.830637
      56A      0.855269    57A      0.922974    58A      0.923021
      59A      0.945962    60A      0.953542    61A      0.966515
      62A      0.966680    63A      1.008692    64A      1.131976
      65A      1.132299    66A      1.155598    67A      1.168033
      68A      1.168655    69A      1.232296    70A      1.279750
      71A      1.280408    72A      1.285130    73A      1.329078
      74A      1.329614    75A      1.365400    76A      1.370969
      77A      1.371632    78A      1.393505    79A      1.407334
      80A      1.407697    81A      1.421847    82A      1.422470
      83A      1.428197    84A      1.492538    85A      1.509524
      86A      1.547149    87A      1.547317    88A      1.582097
      89A      1.582540    90A      1.674670    91A      1.744748
      92A      1.745613    93A      1.779103    94A      1.834721
      95A      1.835784    96A      1.972590    97A      2.024611
      98A      2.026283    99A      2.039671   100A      2.058590
     101A      2.060132   102A      2.746715   103A      2.746925
     104A      2.811838   105A      2.816060   106A      2.902376
     107A      2.902910   108A      2.924648   109A      2.931929
     110A      2.932028   111A      2.960057   112A      2.968776
     113A      2.969061   114A      3.041944   115A      3.080996
     116A      3.081371   117A      3.086188   118A      3.184312
     119A      3.184670   120A      3.188349   121A      3.290084
     122A      3.290143   123A      3.330717   124A      3.331210
     125A      3.383434   126A      3.492409   127A      3.493364
     128A      3.512383   129A      3.528373   130A      3.574994
     131A      3.581630   132A      3.581839   133A      3.670376
     134A      3.671877   135A      3.692959   136A      3.725573
     137A      3.725946   138A      3.781098   139A      3.781554
     140A      3.817667   141A      3.921336   142A      3.922746
     143A      4.045340   144A      4.117926   145A      4.118448
     146A      4.155109   147A      4.155557   148A      4.187306
     149A      4.208451   150A      4.209431   151A      4.210757
     152A      4.215335   153A      4.322518   154A      4.324249
     155A      4.362356   156A      4.431737   157A      4.433475
     158A      4.446439   159A      4.523408   160A      4.525860
     161A      4.588665   162A      4.589086   163A      4.624731
     164A      4.719792   165A      4.780937   166A      4.782117
     167A      4.839847   168A      4.967624   169A      5.006168
     170A      5.007839   171A      5.233764   172A      5.248400
     173A      5.248789   174A      5.361712   175A      5.362261
     176A      5.481669

    Final Occupation by Irrep:
              A
    DOCC [    16 ]
    SOCC [     1 ]

  @DF-UKS Final Energy:  -157.81306959923668

   => Energetics <=

    Nuclear Repulsion Energy =            125.3946007208185307
    One-Electron Energy =                -458.7488656304844312
    Two-Electron Energy =                 195.8483379716912225
    DFT Exchange-Correlation Energy =     -20.3071426612619952
    Empirical Dispersion Energy =           0.0000000000000000
    VV10 Nonlocal Energy =                  0.0000000000000000
    Total Energy =                       -157.8130695992366839

  UHF NO Occupations:
  HONO-2 :   15  A 1.9996009
  HONO-1 :   16  A 1.9989805
  HONO-0 :   17  A 1.0000000
  LUNO+0 :   18  A 0.0010195
  LUNO+1 :   19  A 0.0003991
  LUNO+2 :   20  A 0.0001979
  LUNO+3 :   21  A 0.0001972

Computation Completed

Properties will be evaluated at   0.000000,   0.000000,   0.000000 [a0]

Properties computed using the SCF density matrix

  Nuclear Dipole Moment: [e a0]
     X:     0.8272      Y:     0.0012      Z:    -0.0033

  Electronic Dipole Moment: [e a0]
     X:    -0.7493      Y:    -0.0011      Z:     0.0034

  Dipole Moment: [e a0]
     X:     0.0779      Y:     0.0001      Z:     0.0001     Total:     0.0779

  Dipole Moment: [D]
     X:     0.1980      Y:     0.0003      Z:     0.0002     Total:     0.1980

*** tstop() called on n082 at Fri Nov  5 12:28:09 2021
Module time:
	user time   =     498.57 seconds =       8.31 minutes
	system time =       4.49 seconds =       0.07 minutes
	total time  =        127 seconds =       2.12 minutes
Total time:
	user time   =     498.57 seconds =       8.31 minutes
	system time =       4.49 seconds =       0.07 minutes
	total time  =        127 seconds =       2.12 minutes
Grab this energy -157.81306959923668
    Psi4 stopped on: Friday, 05 November 2021 12:28PM
    Psi4 wall time for execution: 0:02:06.48

*** Psi4 exiting successfully. Buy a developer a beer!
