                               Psi4 1.4a2.dev629

  ==> Input File <==

--------------------------------------------------------------------------
import os
memory 14 GB

molecule {
 C   -0.3233413946   -0.0024295400   -0.0004959251
 C    0.0595487877   -1.4013793048   -2.4254623377
 C    0.0618163576    2.8030136604   -0.0003832447
 C    0.0619327701   -1.4016264376    2.4251283579
 H    2.0892194416   -1.6414939028   -2.8489258693
 H   -0.7709295450   -0.3910351845   -4.0190802561
 H   -0.7647605972   -3.2930611662   -2.3499185245
 H    2.0893685837    3.2872811916   -0.0001818398
 H   -0.7654273322    3.6836034987    1.6765619734
 H   -0.7630323483    3.6826711119   -1.6759569834
 H    2.0820763305   -1.6420857073    2.8495569039
 H   -0.7602432206   -3.2972128906    2.3468927722
 H   -0.7688357101   -0.3862696423    4.0222649732
units bohr
0 2
}

basis {

assign 6-31g_2dfp_

[ 6-31g_2dfp_ ]

spherical

!----------------------------------------------------------------------
! Basis Set Exchange
! Version v0.8.13
! https://www.basissetexchange.org
!----------------------------------------------------------------------
!   Basis set: 6-31G(2df,p)
! Description: 6-31G(2df,p)
!        Role: orbital
!     Version: 0  (Data from the original Basis Set Exchange)
!----------------------------------------------------------------------

****
H     0
S    3   1.00
     18.7311370              0.03349460
      2.8253937              0.23472695
      0.6401217              0.81375733
S    1   1.00
      0.1612778              1.00000000
P    1   1.00
      1.5000000              1.0000000
P    1   1.00
      0.3750000              1.0000000
****
B     0
S    6   1.00
   2068.8823000              0.0018663
    310.6495700              0.0142515
     70.6830330              0.0695516
     19.8610800              0.2325729
      6.2993048              0.4670787
      2.1270270              0.3634314
SP   3   1.00
      4.7279710             -0.1303938              0.0745976
      1.1903377             -0.1307889              0.3078467
      0.3594117              1.1309444              0.7434568
SP   1   1.00
      0.1267512              1.0000000              1.0000000
D    1   1.00
      0.8020000              1.0000000
D    1   1.00
      0.2005000              1.0000000
F    1   1.00
      0.5000000              1.0000000
****
C     0
S    6   1.00
   3047.5249000              0.0018347
    457.3695100              0.0140373
    103.9486900              0.0688426
     29.2101550              0.2321844
      9.2866630              0.4679413
      3.1639270              0.3623120
SP   3   1.00
      7.8682724             -0.1193324              0.0689991
      1.8812885             -0.1608542              0.3164240
      0.5442493              1.1434564              0.7443083
SP   1   1.00
      0.1687144              1.0000000              1.0000000
D    1   1.00
      1.2520000              1.0000000
D    1   1.00
      0.3130000              1.0000000
F    1   1.00
      0.8000000              1.0000000
****
N     0
S    6   1.00
   4173.5110000              0.0018348
    627.4579000              0.0139950
    142.9021000              0.0685870
     40.2343300              0.2322410
     12.8202100              0.4690700
      4.3904370              0.3604550
SP   3   1.00
     11.6263580             -0.1149610              0.0675800
      2.7162800             -0.1691180              0.3239070
      0.7722180              1.1458520              0.7408950
SP   1   1.00
      0.2120313              1.0000000              1.0000000
D    1   1.00
      1.8260000              1.0000000
D    1   1.00
      0.4565000              1.0000000
F    1   1.00
      1.0000000              1.0000000
****
O     0
S    6   1.00
   5484.6717000              0.0018311
    825.2349500              0.0139501
    188.0469600              0.0684451
     52.9645000              0.2327143
     16.8975700              0.4701930
      5.7996353              0.3585209
SP   3   1.00
     15.5396160             -0.1107775              0.0708743
      3.5999336             -0.1480263              0.3397528
      1.0137618              1.1307670              0.7271586
SP   1   1.00
      0.2700058              1.0000000              1.0000000
D    1   1.00
      2.5840000              1.0000000
D    1   1.00
      0.6460000              1.0000000
F    1   1.00
      1.4000000              1.0000000
****
F     0
S    6   1.00
   7001.7130900              0.0018196169
   1051.3660900              0.0139160796
    239.2856900              0.0684053245
     67.3974453              0.233185760
     21.5199573              0.471267439
      7.40310130             0.356618546
SP   3   1.00
     20.8479528             -0.108506975            0.0716287243
      4.80830834            -0.146451658            0.3459121030
      1.34406986             1.128688580            0.7224699570
SP   1   1.00
      0.358151393            1.0000000              1.0000000
D    1   1.00
      3.5000000              1.0000000
D    1   1.00
      0.8750000              1.0000000
F    1   1.00
      1.8500000              1.0000000
****
Al     0
S    6   1.00
  13983.1000000              0.00194267
   2098.7500000              0.0148599
    477.7050000              0.0728494
    134.3600000              0.2468300
     42.8709000              0.4872580
     14.5189000              0.3234960
SP   6   1.00
    239.6680000             -0.00292619             0.00460285
     57.4419000             -0.0374080              0.0331990
     18.2859000             -0.1144870              0.1362820
      6.5991400              0.1156350              0.3304760
      2.4904900              0.6125950              0.4491460
      0.9445400              0.3937990              0.2657040
SP   3   1.00
      1.2779000             -0.2276060             -0.0175130
      0.3975900              0.00144583             0.2445330
      0.1600950              1.0927900              0.8049340
SP   1   1.00
      0.0556577              1.0000000              1.0000000
D    1   1.00
      0.6500000              1.0000000
D    1   1.00
      0.1625000              1.0000000
F    1   1.00
      0.2500000              1.0000000
****
Si     0
S    6   1.00
  16115.9000000              0.00195948
   2425.5800000              0.01492880
    553.8670000              0.07284780
    156.3400000              0.24613000
     50.0683000              0.48591400
     17.0178000              0.32500200
SP   6   1.00
    292.7180000             -0.00278094             0.00443826
     69.8731000             -0.03571460             0.03266790
     22.3363000             -0.11498500             0.13472100
      8.1503900              0.09356340             0.32867800
      3.1345800              0.60301700             0.44964000
      1.2254300              0.41895900             0.26137200
SP   3   1.00
      1.7273800             -0.24463000            -0.01779510
      0.5729220              0.00431572             0.25353900
      0.2221920              1.09818000             0.80066900
SP   1   1.00
      0.0778369              1.00000000             1.00000000
D    1   1.00
      0.9000000              1.0000000
D    1   1.00
      0.2250000              1.0000000
F    1   1.00
      0.3200000              1.0000000
****
P     0
S    6   1.00
  19413.3000000              0.0018516
   2909.4200000              0.0142062
    661.3640000              0.0699995
    185.7590000              0.2400790
     59.1943000              0.4847620
     20.0310000              0.3352000
SP   6   1.00
    339.4780000             -0.00278217             0.00456462
     81.0101000             -0.0360499              0.03369360
     25.8780000             -0.1166310              0.13975500
      9.4522100              0.0968328              0.33936200
      3.6656600              0.6144180              0.45092100
      1.4674600              0.4037980              0.23858600
SP   3   1.00
      2.1562300             -0.2529230             -0.01776530
      0.7489970              0.0328517              0.27405800
      0.2831450              1.0812500              0.78542100
SP   1   1.00
      0.0998317              1.0000000              1.00000000
D    1   1.00
      1.1000000              1.0000000
D    1   1.00
      0.2750000              1.0000000
F    1   1.00
      0.4500000              1.0000000
****
S     0
S    6   1.00
  21917.1000000              0.0018690
   3301.4900000              0.0142300
    754.1460000              0.0696960
    212.7110000              0.2384870
     67.9896000              0.4833070
     23.0515000              0.3380740
SP   6   1.00
    423.7350000             -0.0023767              0.0040610
    100.7100000             -0.0316930              0.0306810
     32.1599000             -0.1133170              0.1304520
     11.8079000              0.0560900              0.3272050
      4.6311000              0.5922550              0.4528510
      1.8702500              0.4550060              0.2560420
SP   3   1.00
      2.6158400             -0.2503740             -0.0145110
      0.9221670              0.0669570              0.3102630
      0.3412870              1.0545100              0.7544830
SP   1   1.00
      0.1171670              1.0000000              1.0000000
D    1   1.00
      1.3000000              1.0000000
D    1   1.00
      0.3250000              1.0000000
F    1   1.00
      0.5500000              1.0000000
****
Cl     0
S    6   1.00
  25180.1000000              0.0018330
   3780.3500000              0.0140340
    860.4740000              0.0690970
    242.1450000              0.2374520
     77.3349000              0.4830340
     26.2470000              0.3398560
SP   6   1.00
    491.7650000             -0.0022974              0.0039894
    116.9840000             -0.0307140              0.0303180
     37.4153000             -0.1125280              0.1298800
     13.7834000              0.0450160              0.3279510
      5.4521500              0.5893530              0.4535270
      2.2258800              0.4652060              0.2521540
SP   3   1.00
      3.1864900             -0.2518300             -0.0142990
      1.1442700              0.0615890              0.3235720
      0.4203770              1.0601800              0.7435070
SP   1   1.00
      0.1426570              1.0000000              1.0000000
D    1   1.00
      1.5000000              1.0000000
D    1   1.00
      0.3750000              1.0000000
F    1   1.00
      0.7000000              1.0000000
****
}

set {
reference uhf
freeze_core true
e_convergence 10
d_convergence 10
dft_spherical_points 1202
dft_radial_points 99
}

e = energy('b3lyp')

print_out('Grab this energy {0}'.format(e))
--------------------------------------------------------------------------

    Molecular point group: c1

    Geometry (in Bohr), charge = 0, multiplicity = 2:

       Center              X                  Y                   Z               Mass
    ------------   -----------------  -----------------  -----------------  -----------------
         C           -0.323340721560    -0.001962688801    -0.000262263749    12.000000000000
         C            0.059549460740    -1.400912453601    -2.425228676349    12.000000000000
         C            0.061817030640     2.803480511599    -0.000149583349    12.000000000000
         C            0.061933443140    -1.401159586401     2.425362019251    12.000000000000
         H            2.089220114640    -1.641027051601    -2.848692207949     1.007825032230
         H           -0.770928871960    -0.390568333301    -4.018846594749     1.007825032230
         H           -0.764759924160    -3.292594315001    -2.349684863149     1.007825032230
         H            2.089369256740     3.287748042799     0.000051821551     1.007825032230
         H           -0.765426659160     3.684070349899     1.676795634751     1.007825032230
         H           -0.763031675260     3.683137963099    -1.675723322049     1.007825032230
         H            2.082077003540    -1.641618856101     2.849790565251     1.007825032230
         H           -0.760242547560    -3.296746039401     2.347126433551     1.007825032230
         H           -0.768835037060    -0.385802791101     4.022498634551     1.007825032230

  Charge       = 0
  Multiplicity = 2
  Basis Set: ANONYMOUSF9ABCB15
    Blend: 6-31G_2DFP_
  Basis Set: (ANONYMOUSF9ABCB15 AUX)
    Blend: DEF2-UNIVERSAL-JKFIT

    Orbital Energies [Eh]
    ---------------------

    Alpha Occupied:

       1A    -10.180342     2A    -10.167233     3A    -10.166933
       4A    -10.166878     5A     -0.797767     6A     -0.686331
       7A     -0.686044     8A     -0.530778     9A     -0.441127
      10A     -0.434747    11A     -0.434595    12A     -0.382648
      13A     -0.382549    14A     -0.363610    15A     -0.338151
      16A     -0.337846    17A     -0.168961

    Alpha Virtual:

      18A      0.076071    19A      0.133977    20A      0.134332
      21A      0.142562    22A      0.142689    23A      0.154880
      24A      0.178693    25A      0.178863    26A      0.203548
      27A      0.214802    28A      0.275642    29A      0.276329
      30A      0.399184    31A      0.399261    32A      0.403355
      33A      0.424006    34A      0.424190    35A      0.456593
      36A      0.495235    37A      0.495541    38A      0.512161
      39A      0.513981    40A      0.578554    41A      0.579072
      42A      0.591369    43A      0.591893    44A      0.602584
      45A      0.624762    46A      0.631751    47A      0.636120
      48A      0.636401    49A      0.662991    50A      0.663847
      51A      0.683679    52A      0.684030    53A      0.734996
      54A      0.825365    55A      0.825440    56A      0.853921
      57A      0.914776    58A      0.915276    59A      0.944123
      60A      0.944610    61A      0.961168    62A      0.961426
      63A      1.003454    64A      1.128039    65A      1.128157
      66A      1.142201    67A      1.163107    68A      1.163466
      69A      1.223328    70A      1.274254    71A      1.274704
      72A      1.279378    73A      1.324225    74A      1.324488
      75A      1.355964    76A      1.365758    77A      1.366334
      78A      1.392444    79A      1.403495    80A      1.404620
      81A      1.416529    82A      1.417706    83A      1.427919
      84A      1.491489    85A      1.499080    86A      1.542351
      87A      1.543327    88A      1.574172    89A      1.574716
      90A      1.669825    91A      1.739112    92A      1.739685
      93A      1.768350    94A      1.830498    95A      1.832291
      96A      1.971715    97A      2.018111    98A      2.018601
      99A      2.019671   100A      2.051310   101A      2.054018
     102A      2.738070   103A      2.738895   104A      2.790930
     105A      2.811420   106A      2.889478   107A      2.890349
     108A      2.895022   109A      2.929328   110A      2.929670
     111A      2.958996   112A      2.963962   113A      2.964792
     114A      3.034016   115A      3.070987   116A      3.071572
     117A      3.084363   118A      3.168519   119A      3.169017
     120A      3.180628   121A      3.284989   122A      3.285642
     123A      3.326665   124A      3.327650   125A      3.375627
     126A      3.489882   127A      3.490431   128A      3.514003
     129A      3.525313   130A      3.567563   131A      3.569232
     132A      3.575157   133A      3.665643   134A      3.667090
     135A      3.679673   136A      3.693757   137A      3.694503
     138A      3.775469   139A      3.778094   140A      3.789178
     141A      3.911727   142A      3.912738   143A      4.034434
     144A      4.110246   145A      4.112465   146A      4.147295
     147A      4.148895   148A      4.173232   149A      4.201656
     150A      4.202956   151A      4.204130   152A      4.210951
     153A      4.314973   154A      4.317005   155A      4.358984
     156A      4.423859   157A      4.425067   158A      4.443435
     159A      4.515805   160A      4.517882   161A      4.577579
     162A      4.578925   163A      4.617555   164A      4.709452
     165A      4.773844   166A      4.775391   167A      4.836910
     168A      4.962853   169A      5.001993   170A      5.003914
     171A      5.227995   172A      5.244739   173A      5.248876
     174A      5.353958   175A      5.357126   176A      5.479379

    Beta Occupied:

       1A    -10.167989     2A    -10.167692     3A    -10.167642
       4A    -10.166519     5A     -0.781093     6A     -0.684122
       7A     -0.683858     8A     -0.511749     9A     -0.431123
      10A     -0.430965    11A     -0.421820    12A     -0.376738
      13A     -0.376629    14A     -0.362594    15A     -0.333272
      16A     -0.332970

    Beta Virtual:

      17A     -0.025743    18A      0.077080    19A      0.134876
      20A      0.135215    21A      0.144454    22A      0.144539
      23A      0.163337    24A      0.182345    25A      0.182555
      26A      0.215032    27A      0.218930    28A      0.282000
      29A      0.282667    30A      0.400363    31A      0.400429
      32A      0.419792    33A      0.426812    34A      0.427007
      35A      0.468502    36A      0.497491    37A      0.497807
      38A      0.513896    39A      0.556324    40A      0.584106
      41A      0.584621    42A      0.597550    43A      0.598073
      44A      0.610003    45A      0.628138    46A      0.631918
      47A      0.639388    48A      0.639693    49A      0.666588
      50A      0.667379    51A      0.686334    52A      0.686646
      53A      0.757518    54A      0.830547    55A      0.830595
      56A      0.855276    57A      0.922757    58A      0.923237
      59A      0.945960    60A      0.953539    61A      0.966437
      62A      0.966769    63A      1.008693    64A      1.132040
      65A      1.132215    66A      1.155572    67A      1.168178
      68A      1.168547    69A      1.232300    70A      1.279839
      71A      1.280308    72A      1.285138    73A      1.329227
      74A      1.329466    75A      1.365374    76A      1.371039
      77A      1.371541    78A      1.393503    79A      1.406909
      80A      1.408138    81A      1.421566    82A      1.422769
      83A      1.428190    84A      1.492538    85A      1.509523
      86A      1.546780    87A      1.547710    88A      1.582088
      89A      1.582547    90A      1.674672    91A      1.744862
      92A      1.745466    93A      1.779123    94A      1.834344
      95A      1.836157    96A      1.972576    97A      2.024957
      98A      2.025917    99A      2.039672   100A      2.058088
     101A      2.060682   102A      2.746411   103A      2.747227
     104A      2.811832   105A      2.816064   106A      2.902265
     107A      2.903006   108A      2.924640   109A      2.931808
     110A      2.932169   111A      2.960058   112A      2.968507
     113A      2.969342   114A      3.041949   115A      3.080893
     116A      3.081467   117A      3.086200   118A      3.184080
     119A      3.184895   120A      3.188371   121A      3.289776
     122A      3.290450   123A      3.330467   124A      3.331460
     125A      3.383444   126A      3.492614   127A      3.493160
     128A      3.512373   129A      3.528361   130A      3.574982
     131A      3.580941   132A      3.582558   133A      3.670365
     134A      3.671891   135A      3.692948   136A      3.725513
     137A      3.726001   138A      3.780042   139A      3.782605
     140A      3.817692   141A      3.921582   142A      3.922517
     143A      4.045320   144A      4.117073   145A      4.119268
     146A      4.154591   147A      4.156025   148A      4.187281
     149A      4.207888   150A      4.209687   151A      4.211014
     152A      4.215432   153A      4.322395   154A      4.324460
     155A      4.362347   156A      4.432088   157A      4.433263
     158A      4.446323   159A      4.523602   160A      4.525664
     161A      4.588171   162A      4.589530   163A      4.624754
     164A      4.719796   165A      4.780830   166A      4.782312
     167A      4.839827   168A      4.967648   169A      5.006036
     170A      5.007951   171A      5.233708   172A      5.246534
     173A      5.250651   174A      5.360417   175A      5.363628
     176A      5.481700

    Final Occupation by Irrep:
              A
    DOCC [    16 ]
    SOCC [     1 ]

  @DF-UKS Final Energy:  -157.81305830415764

   => Energetics <=

    Nuclear Repulsion Energy =            125.3946643329393709
    One-Electron Energy =                -458.7489609568997935
    Two-Electron Energy =                 195.8483855398843048
    DFT Exchange-Correlation Energy =     -20.3071472200815357
    Empirical Dispersion Energy =           0.0000000000000000
    VV10 Nonlocal Energy =                  0.0000000000000000
    Total Energy =                       -157.8130583041576358

  UHF NO Occupations:
  HONO-2 :   15  A 1.9996008
  HONO-1 :   16  A 1.9989804
  HONO-0 :   17  A 1.0000000
  LUNO+0 :   18  A 0.0010196
  LUNO+1 :   19  A 0.0003992
  LUNO+2 :   20  A 0.0001981
  LUNO+3 :   21  A 0.0001970

Computation Completed

Properties will be evaluated at   0.000000,   0.000000,   0.000000 [a0]

Properties computed using the SCF density matrix

  Nuclear Dipole Moment: [e a0]
     X:     0.8272      Y:     0.0033      Z:     0.0016

  Electronic Dipole Moment: [e a0]
     X:    -0.7493      Y:    -0.0032      Z:    -0.0023

  Dipole Moment: [e a0]
     X:     0.0779      Y:     0.0000      Z:    -0.0006     Total:     0.0779

  Dipole Moment: [D]
     X:     0.1980      Y:     0.0001      Z:    -0.0016     Total:     0.1980

*** tstop() called on n065 at Fri Nov  5 14:10:37 2021
Module time:
	user time   =     544.99 seconds =       9.08 minutes
	system time =      11.95 seconds =       0.20 minutes
	total time  =        140 seconds =       2.33 minutes
Total time:
	user time   =     544.99 seconds =       9.08 minutes
	system time =      11.95 seconds =       0.20 minutes
	total time  =        140 seconds =       2.33 minutes
Grab this energy -157.81305830415764
    Psi4 stopped on: Friday, 05 November 2021 02:10PM
    Psi4 wall time for execution: 0:02:20.09

*** Psi4 exiting successfully. Buy a developer a beer!
