                               Psi4 1.4a2.dev629

  ==> Input File <==

--------------------------------------------------------------------------
import os
memory 14 GB

molecule {
 C   -0.3233330203    0.0000032767    0.0049992965
 C    0.0616633602   -1.3940555444   -2.4223949397
 C    0.0610184338    2.8017468271   -0.0054305955
 C    0.0606188202   -1.4076856402    2.4303536364
 H    2.0876097416   -1.6339337117   -2.8441393604
 H   -0.7651914990   -0.3802805439   -4.0228644002
 H   -0.7639501644   -3.2831311339   -2.3454368921
 H    2.0867937144    3.2880871394   -0.0095583706
 H   -0.7622194730    3.6922584913    1.6680225676
 H   -0.7690774979    3.6682093603   -1.6848888700
 H    2.0862625575   -1.6542543885    2.8507248480
 H   -0.7671925520   -3.3008521082    2.3525298736
 H   -0.7656102978   -0.3961363376    4.0280832064
units bohr
0 2
}

basis {

assign 6-31g_2dfp_

[ 6-31g_2dfp_ ]

spherical

!----------------------------------------------------------------------
! Basis Set Exchange
! Version v0.8.13
! https://www.basissetexchange.org
!----------------------------------------------------------------------
!   Basis set: 6-31G(2df,p)
! Description: 6-31G(2df,p)
!        Role: orbital
!     Version: 0  (Data from the original Basis Set Exchange)
!----------------------------------------------------------------------

****
H     0
S    3   1.00
     18.7311370              0.03349460
      2.8253937              0.23472695
      0.6401217              0.81375733
S    1   1.00
      0.1612778              1.00000000
P    1   1.00
      1.5000000              1.0000000
P    1   1.00
      0.3750000              1.0000000
****
B     0
S    6   1.00
   2068.8823000              0.0018663
    310.6495700              0.0142515
     70.6830330              0.0695516
     19.8610800              0.2325729
      6.2993048              0.4670787
      2.1270270              0.3634314
SP   3   1.00
      4.7279710             -0.1303938              0.0745976
      1.1903377             -0.1307889              0.3078467
      0.3594117              1.1309444              0.7434568
SP   1   1.00
      0.1267512              1.0000000              1.0000000
D    1   1.00
      0.8020000              1.0000000
D    1   1.00
      0.2005000              1.0000000
F    1   1.00
      0.5000000              1.0000000
****
C     0
S    6   1.00
   3047.5249000              0.0018347
    457.3695100              0.0140373
    103.9486900              0.0688426
     29.2101550              0.2321844
      9.2866630              0.4679413
      3.1639270              0.3623120
SP   3   1.00
      7.8682724             -0.1193324              0.0689991
      1.8812885             -0.1608542              0.3164240
      0.5442493              1.1434564              0.7443083
SP   1   1.00
      0.1687144              1.0000000              1.0000000
D    1   1.00
      1.2520000              1.0000000
D    1   1.00
      0.3130000              1.0000000
F    1   1.00
      0.8000000              1.0000000
****
N     0
S    6   1.00
   4173.5110000              0.0018348
    627.4579000              0.0139950
    142.9021000              0.0685870
     40.2343300              0.2322410
     12.8202100              0.4690700
      4.3904370              0.3604550
SP   3   1.00
     11.6263580             -0.1149610              0.0675800
      2.7162800             -0.1691180              0.3239070
      0.7722180              1.1458520              0.7408950
SP   1   1.00
      0.2120313              1.0000000              1.0000000
D    1   1.00
      1.8260000              1.0000000
D    1   1.00
      0.4565000              1.0000000
F    1   1.00
      1.0000000              1.0000000
****
O     0
S    6   1.00
   5484.6717000              0.0018311
    825.2349500              0.0139501
    188.0469600              0.0684451
     52.9645000              0.2327143
     16.8975700              0.4701930
      5.7996353              0.3585209
SP   3   1.00
     15.5396160             -0.1107775              0.0708743
      3.5999336             -0.1480263              0.3397528
      1.0137618              1.1307670              0.7271586
SP   1   1.00
      0.2700058              1.0000000              1.0000000
D    1   1.00
      2.5840000              1.0000000
D    1   1.00
      0.6460000              1.0000000
F    1   1.00
      1.4000000              1.0000000
****
F     0
S    6   1.00
   7001.7130900              0.0018196169
   1051.3660900              0.0139160796
    239.2856900              0.0684053245
     67.3974453              0.233185760
     21.5199573              0.471267439
      7.40310130             0.356618546
SP   3   1.00
     20.8479528             -0.108506975            0.0716287243
      4.80830834            -0.146451658            0.3459121030
      1.34406986             1.128688580            0.7224699570
SP   1   1.00
      0.358151393            1.0000000              1.0000000
D    1   1.00
      3.5000000              1.0000000
D    1   1.00
      0.8750000              1.0000000
F    1   1.00
      1.8500000              1.0000000
****
Al     0
S    6   1.00
  13983.1000000              0.00194267
   2098.7500000              0.0148599
    477.7050000              0.0728494
    134.3600000              0.2468300
     42.8709000              0.4872580
     14.5189000              0.3234960
SP   6   1.00
    239.6680000             -0.00292619             0.00460285
     57.4419000             -0.0374080              0.0331990
     18.2859000             -0.1144870              0.1362820
      6.5991400              0.1156350              0.3304760
      2.4904900              0.6125950              0.4491460
      0.9445400              0.3937990              0.2657040
SP   3   1.00
      1.2779000             -0.2276060             -0.0175130
      0.3975900              0.00144583             0.2445330
      0.1600950              1.0927900              0.8049340
SP   1   1.00
      0.0556577              1.0000000              1.0000000
D    1   1.00
      0.6500000              1.0000000
D    1   1.00
      0.1625000              1.0000000
F    1   1.00
      0.2500000              1.0000000
****
Si     0
S    6   1.00
  16115.9000000              0.00195948
   2425.5800000              0.01492880
    553.8670000              0.07284780
    156.3400000              0.24613000
     50.0683000              0.48591400
     17.0178000              0.32500200
SP   6   1.00
    292.7180000             -0.00278094             0.00443826
     69.8731000             -0.03571460             0.03266790
     22.3363000             -0.11498500             0.13472100
      8.1503900              0.09356340             0.32867800
      3.1345800              0.60301700             0.44964000
      1.2254300              0.41895900             0.26137200
SP   3   1.00
      1.7273800             -0.24463000            -0.01779510
      0.5729220              0.00431572             0.25353900
      0.2221920              1.09818000             0.80066900
SP   1   1.00
      0.0778369              1.00000000             1.00000000
D    1   1.00
      0.9000000              1.0000000
D    1   1.00
      0.2250000              1.0000000
F    1   1.00
      0.3200000              1.0000000
****
P     0
S    6   1.00
  19413.3000000              0.0018516
   2909.4200000              0.0142062
    661.3640000              0.0699995
    185.7590000              0.2400790
     59.1943000              0.4847620
     20.0310000              0.3352000
SP   6   1.00
    339.4780000             -0.00278217             0.00456462
     81.0101000             -0.0360499              0.03369360
     25.8780000             -0.1166310              0.13975500
      9.4522100              0.0968328              0.33936200
      3.6656600              0.6144180              0.45092100
      1.4674600              0.4037980              0.23858600
SP   3   1.00
      2.1562300             -0.2529230             -0.01776530
      0.7489970              0.0328517              0.27405800
      0.2831450              1.0812500              0.78542100
SP   1   1.00
      0.0998317              1.0000000              1.00000000
D    1   1.00
      1.1000000              1.0000000
D    1   1.00
      0.2750000              1.0000000
F    1   1.00
      0.4500000              1.0000000
****
S     0
S    6   1.00
  21917.1000000              0.0018690
   3301.4900000              0.0142300
    754.1460000              0.0696960
    212.7110000              0.2384870
     67.9896000              0.4833070
     23.0515000              0.3380740
SP   6   1.00
    423.7350000             -0.0023767              0.0040610
    100.7100000             -0.0316930              0.0306810
     32.1599000             -0.1133170              0.1304520
     11.8079000              0.0560900              0.3272050
      4.6311000              0.5922550              0.4528510
      1.8702500              0.4550060              0.2560420
SP   3   1.00
      2.6158400             -0.2503740             -0.0145110
      0.9221670              0.0669570              0.3102630
      0.3412870              1.0545100              0.7544830
SP   1   1.00
      0.1171670              1.0000000              1.0000000
D    1   1.00
      1.3000000              1.0000000
D    1   1.00
      0.3250000              1.0000000
F    1   1.00
      0.5500000              1.0000000
****
Cl     0
S    6   1.00
  25180.1000000              0.0018330
   3780.3500000              0.0140340
    860.4740000              0.0690970
    242.1450000              0.2374520
     77.3349000              0.4830340
     26.2470000              0.3398560
SP   6   1.00
    491.7650000             -0.0022974              0.0039894
    116.9840000             -0.0307140              0.0303180
     37.4153000             -0.1125280              0.1298800
     13.7834000              0.0450160              0.3279510
      5.4521500              0.5893530              0.4535270
      2.2258800              0.4652060              0.2521540
SP   3   1.00
      3.1864900             -0.2518300             -0.0142990
      1.1442700              0.0615890              0.3235720
      0.4203770              1.0601800              0.7435070
SP   1   1.00
      0.1426570              1.0000000              1.0000000
D    1   1.00
      1.5000000              1.0000000
D    1   1.00
      0.3750000              1.0000000
F    1   1.00
      0.7000000              1.0000000
****
}

set {
reference uhf
freeze_core true
e_convergence 10
d_convergence 10
dft_spherical_points 1202
dft_radial_points 99
}

e = energy('b3lyp')

print_out('Grab this energy {0}'.format(e))
--------------------------------------------------------------------------

    Molecular point group: c1

    Geometry (in Bohr), charge = 0, multiplicity = 2:

       Center              X                  Y                   Z               Mass
    ------------   -----------------  -----------------  -----------------  -----------------
         C           -0.323334480021     0.000001988160     0.003549465486    12.000000000000
         C            0.061661900479    -1.394056832940    -2.423844770714    12.000000000000
         C            0.061016974079     2.801745538560    -0.006880426514    12.000000000000
         C            0.060617360479    -1.407686928740     2.428903805386    12.000000000000
         H            2.087608281879    -1.633935000240    -2.845589191414     1.007825032230
         H           -0.765192958721    -0.380281832440    -4.024314231214     1.007825032230
         H           -0.763951624121    -3.283132422440    -2.346886723114     1.007825032230
         H            2.086792254679     3.288085850860    -0.011008201614     1.007825032230
         H           -0.762220932721     3.692257202760     1.666572736586     1.007825032230
         H           -0.769078957621     3.668208071760    -1.686338701014     1.007825032230
         H            2.086261097779    -1.654255677040     2.849275016986     1.007825032230
         H           -0.767194011721    -3.300853396740     2.351080042586     1.007825032230
         H           -0.765611757521    -0.396137626140     4.026633375386     1.007825032230

  Charge       = 0
  Multiplicity = 2
  Basis Set: ANONYMOUSB837DBE3
    Blend: 6-31G_2DFP_
  Basis Set: (ANONYMOUSB837DBE3 AUX)
    Blend: DEF2-UNIVERSAL-JKFIT

    Orbital Energies [Eh]
    ---------------------

    Alpha Occupied:

       1A    -10.180342     2A    -10.167287     3A    -10.167016
       4A    -10.166743     5A     -0.797770     6A     -0.686406
       7A     -0.685965     8A     -0.530776     9A     -0.441127
      10A     -0.434938    11A     -0.434408    12A     -0.382742
      13A     -0.382452    14A     -0.363610    15A     -0.338271
      16A     -0.337724    17A     -0.168962

    Alpha Virtual:

      18A      0.076072    19A      0.133914    20A      0.134393
      21A      0.142490    22A      0.142766    23A      0.154880
      24A      0.178556    25A      0.179003    26A      0.203526
      27A      0.214824    28A      0.275816    29A      0.276155
      30A      0.399054    31A      0.399339    32A      0.403413
      33A      0.423968    34A      0.424238    35A      0.456595
      36A      0.494985    37A      0.495786    38A      0.512172
      39A      0.513987    40A      0.578554    41A      0.579054
      42A      0.591615    43A      0.591662    44A      0.602573
      45A      0.624693    46A      0.631846    47A      0.636030
      48A      0.636471    49A      0.663195    50A      0.663630
      51A      0.683613    52A      0.684098    53A      0.734992
      54A      0.824580    55A      0.826222    56A      0.853915
      57A      0.914784    58A      0.915270    59A      0.943945
      60A      0.944608    61A      0.961137    62A      0.961655
      63A      1.003484    64A      1.126954    65A      1.129279
      66A      1.142209    67A      1.162780    68A      1.163754
      69A      1.223333    70A      1.273983    71A      1.275024
      72A      1.279349    73A      1.324267    74A      1.324437
      75A      1.355976    76A      1.365296    77A      1.366745
      78A      1.392444    79A      1.403260    80A      1.404866
      81A      1.416648    82A      1.417633    83A      1.427934
      84A      1.491436    85A      1.499068    86A      1.542479
      87A      1.543193    88A      1.572631    89A      1.576370
      90A      1.669828    91A      1.738347    92A      1.740461
      93A      1.768350    94A      1.830891    95A      1.831913
      96A      1.971725    97A      2.017607    98A      2.018288
      99A      2.020474   100A      2.050138   101A      2.055240
     102A      2.738219   103A      2.738750   104A      2.790918
     105A      2.811442   106A      2.889851   107A      2.890050
     108A      2.894942   109A      2.929318   110A      2.929670
     111A      2.958990   112A      2.963493   113A      2.965291
     114A      3.034016   115A      3.070278   116A      3.072265
     117A      3.084377   118A      3.168030   119A      3.169578
     120A      3.180559   121A      3.284587   122A      3.286003
     123A      3.326233   124A      3.328132   125A      3.375661
     126A      3.489631   127A      3.490598   128A      3.513949
     129A      3.525394   130A      3.567197   131A      3.569441
     132A      3.575372   133A      3.666275   134A      3.666508
     135A      3.679654   136A      3.693641   137A      3.694537
     138A      3.775959   139A      3.777591   140A      3.789288
     141A      3.910823   142A      3.913666   143A      4.034480
     144A      4.110013   145A      4.112748   146A      4.146453
     147A      4.149757   148A      4.173217   149A      4.201364
     150A      4.202659   151A      4.204714   152A      4.210972
     153A      4.315925   154A      4.315968   155A      4.358982
     156A      4.424253   157A      4.424538   158A      4.443550
     159A      4.516024   160A      4.517690   161A      4.577194
     162A      4.579337   163A      4.617547   164A      4.709419
     165A      4.773292   166A      4.775905   167A      4.836955
     168A      4.962886   169A      5.001976   170A      5.003949
     171A      5.228025   172A      5.246669   173A      5.246988
     174A      5.354799   175A      5.356205   176A      5.479331

    Beta Occupied:

       1A    -10.168043     2A    -10.167775     3A    -10.167507
       4A    -10.166519     5A     -0.781095     6A     -0.684213
       7A     -0.683764     8A     -0.511747     9A     -0.431317
      10A     -0.430771    11A     -0.421824    12A     -0.376837
      13A     -0.376528    14A     -0.362593    15A     -0.333398
      16A     -0.332843

    Beta Virtual:

      17A     -0.025743    18A      0.077081    19A      0.134793
      20A      0.135294    21A      0.144367    22A      0.144631
      23A      0.163340    24A      0.182217    25A      0.182684
      26A      0.214988    27A      0.218974    28A      0.282152
      29A      0.282515    30A      0.400278    31A      0.400511
      32A      0.419798    33A      0.426764    34A      0.427064
      35A      0.468505    36A      0.497244    37A      0.498052
      38A      0.513908    39A      0.556329    40A      0.584134
      41A      0.584576    42A      0.597780    43A      0.597854
      44A      0.609992    45A      0.628018    46A      0.632060
      47A      0.639298    48A      0.639772    49A      0.666732
      50A      0.667219    51A      0.686197    52A      0.686786
      53A      0.757514    54A      0.829738    55A      0.831400
      56A      0.855268    57A      0.922742    58A      0.923253
      59A      0.945887    60A      0.953441    61A      0.966391
      62A      0.967009    63A      1.008721    64A      1.130989
      65A      1.133299    66A      1.155582    67A      1.167825
      68A      1.168864    69A      1.232302    70A      1.279575
      71A      1.280624    72A      1.285101    73A      1.329241
      74A      1.329443    75A      1.365390    76A      1.370433
      77A      1.372085    78A      1.393508    79A      1.406765
      80A      1.408310    81A      1.421689    82A      1.422676
      83A      1.428207    84A      1.492488    85A      1.509510
      86A      1.546783    87A      1.547702    88A      1.580649
      89A      1.584096    90A      1.674674    91A      1.744114
      92A      1.746220    93A      1.779128    94A      1.834730
      95A      1.835786    96A      1.972589    97A      2.023956
      98A      2.026937    99A      2.039643   100A      2.056946
     101A      2.061866   102A      2.746510   103A      2.747131
     104A      2.811844   105A      2.816062   106A      2.902574
     107A      2.902703   108A      2.924644   109A      2.931892
     110A      2.932062   111A      2.960062   112A      2.968067
     113A      2.969802   114A      3.041951   115A      3.080031
     116A      3.082203   117A      3.086332   118A      3.183888
     119A      3.185205   120A      3.188241   121A      3.289453
     122A      3.290736   123A      3.330032   124A      3.331947
     125A      3.383477   126A      3.492364   127A      3.493318
     128A      3.512348   129A      3.528424   130A      3.574772
     131A      3.580758   132A      3.583007   133A      3.670997
     134A      3.671275   135A      3.692950   136A      3.725320
     137A      3.726123   138A      3.780503   139A      3.782179
     140A      3.817755   141A      3.920640   142A      3.923483
     143A      4.045367   144A      4.116835   145A      4.119556
     146A      4.153718   147A      4.156911   148A      4.187276
     149A      4.207277   150A      4.210457   151A      4.210812
     152A      4.215481   153A      4.323349   154A      4.323425
     155A      4.362347   156A      4.432457   157A      4.432721
     158A      4.446481   159A      4.523909   160A      4.525377
     161A      4.587717   162A      4.590019   163A      4.624739
     164A      4.719762   165A      4.780208   166A      4.782894
     167A      4.839878   168A      4.967678   169A      5.006016
     170A      5.007988   171A      5.233738   172A      5.248450
     173A      5.248778   174A      5.361261   175A      5.362704
     176A      5.481652

    Final Occupation by Irrep:
              A
    DOCC [    16 ]
    SOCC [     1 ]

  @DF-UKS Final Energy:  -157.81305916048660

   => Energetics <=

    Nuclear Repulsion Energy =            125.3948578307448116
    One-Electron Energy =                -458.7493538855588895
    Two-Electron Energy =                 195.8485826977892259
    DFT Exchange-Correlation Energy =     -20.3071458034617507
    Empirical Dispersion Energy =           0.0000000000000000
    VV10 Nonlocal Energy =                  0.0000000000000000
    Total Energy =                       -157.8130591604866027

  UHF NO Occupations:
  HONO-2 :   15  A 1.9996009
  HONO-1 :   16  A 1.9989804
  HONO-0 :   17  A 1.0000000
  LUNO+0 :   18  A 0.0010196
  LUNO+1 :   19  A 0.0003991
  LUNO+2 :   20  A 0.0001979
  LUNO+3 :   21  A 0.0001972

Computation Completed

Properties will be evaluated at   0.000000,   0.000000,   0.000000 [a0]

Properties computed using the SCF density matrix

  Nuclear Dipole Moment: [e a0]
     X:     0.8272      Y:    -0.0000      Z:    -0.0102

  Electronic Dipole Moment: [e a0]
     X:    -0.7493      Y:     0.0000      Z:     0.0110

  Dipole Moment: [e a0]
     X:     0.0779      Y:    -0.0000      Z:     0.0007     Total:     0.0779

  Dipole Moment: [D]
     X:     0.1980      Y:    -0.0000      Z:     0.0019     Total:     0.1981

*** tstop() called on n071 at Fri Nov  5 15:29:49 2021
Module time:
	user time   =     573.48 seconds =       9.56 minutes
	system time =      13.39 seconds =       0.22 minutes
	total time  =        148 seconds =       2.47 minutes
Total time:
	user time   =     573.48 seconds =       9.56 minutes
	system time =      13.39 seconds =       0.22 minutes
	total time  =        148 seconds =       2.47 minutes
Grab this energy -157.8130591604866
    Psi4 stopped on: Friday, 05 November 2021 03:29PM
    Psi4 wall time for execution: 0:02:27.80

*** Psi4 exiting successfully. Buy a developer a beer!
