                               Psi4 1.4a2.dev629

  ==> Input File <==

--------------------------------------------------------------------------
import os
memory 14 GB

molecule {
 C   -0.3233402923   -0.0019994447    0.0004941882
 C    0.0609775216   -1.4011796987   -2.4248600343
 C    0.0611748344    2.8026062337    0.0000388579
 C    0.0611475465   -1.4018848561    2.4261680872
 H    2.0906678561   -1.6458019368   -2.8433100599
 H   -0.7657996597   -0.3827515787   -4.0239411560
 H   -0.7684333498   -3.2965487652   -2.3523542488
 H    2.0865701285    3.2926914484   -0.0000309537
 H   -0.7662425127    3.6795386325    1.6769366551
 H   -0.7660629514    3.6805264920   -1.6775961796
 H    2.0834267034   -1.6462471576    2.8440534965
 H   -0.7645690729   -3.2905613654    2.3553221812
 H   -0.7621246284   -0.3884123169    4.0190791662
units bohr
0 2
}

basis {

assign 6-31g_2dfp_

[ 6-31g_2dfp_ ]

spherical

!----------------------------------------------------------------------
! Basis Set Exchange
! Version v0.8.13
! https://www.basissetexchange.org
!----------------------------------------------------------------------
!   Basis set: 6-31G(2df,p)
! Description: 6-31G(2df,p)
!        Role: orbital
!     Version: 0  (Data from the original Basis Set Exchange)
!----------------------------------------------------------------------

****
H     0
S    3   1.00
     18.7311370              0.03349460
      2.8253937              0.23472695
      0.6401217              0.81375733
S    1   1.00
      0.1612778              1.00000000
P    1   1.00
      1.5000000              1.0000000
P    1   1.00
      0.3750000              1.0000000
****
B     0
S    6   1.00
   2068.8823000              0.0018663
    310.6495700              0.0142515
     70.6830330              0.0695516
     19.8610800              0.2325729
      6.2993048              0.4670787
      2.1270270              0.3634314
SP   3   1.00
      4.7279710             -0.1303938              0.0745976
      1.1903377             -0.1307889              0.3078467
      0.3594117              1.1309444              0.7434568
SP   1   1.00
      0.1267512              1.0000000              1.0000000
D    1   1.00
      0.8020000              1.0000000
D    1   1.00
      0.2005000              1.0000000
F    1   1.00
      0.5000000              1.0000000
****
C     0
S    6   1.00
   3047.5249000              0.0018347
    457.3695100              0.0140373
    103.9486900              0.0688426
     29.2101550              0.2321844
      9.2866630              0.4679413
      3.1639270              0.3623120
SP   3   1.00
      7.8682724             -0.1193324              0.0689991
      1.8812885             -0.1608542              0.3164240
      0.5442493              1.1434564              0.7443083
SP   1   1.00
      0.1687144              1.0000000              1.0000000
D    1   1.00
      1.2520000              1.0000000
D    1   1.00
      0.3130000              1.0000000
F    1   1.00
      0.8000000              1.0000000
****
N     0
S    6   1.00
   4173.5110000              0.0018348
    627.4579000              0.0139950
    142.9021000              0.0685870
     40.2343300              0.2322410
     12.8202100              0.4690700
      4.3904370              0.3604550
SP   3   1.00
     11.6263580             -0.1149610              0.0675800
      2.7162800             -0.1691180              0.3239070
      0.7722180              1.1458520              0.7408950
SP   1   1.00
      0.2120313              1.0000000              1.0000000
D    1   1.00
      1.8260000              1.0000000
D    1   1.00
      0.4565000              1.0000000
F    1   1.00
      1.0000000              1.0000000
****
O     0
S    6   1.00
   5484.6717000              0.0018311
    825.2349500              0.0139501
    188.0469600              0.0684451
     52.9645000              0.2327143
     16.8975700              0.4701930
      5.7996353              0.3585209
SP   3   1.00
     15.5396160             -0.1107775              0.0708743
      3.5999336             -0.1480263              0.3397528
      1.0137618              1.1307670              0.7271586
SP   1   1.00
      0.2700058              1.0000000              1.0000000
D    1   1.00
      2.5840000              1.0000000
D    1   1.00
      0.6460000              1.0000000
F    1   1.00
      1.4000000              1.0000000
****
F     0
S    6   1.00
   7001.7130900              0.0018196169
   1051.3660900              0.0139160796
    239.2856900              0.0684053245
     67.3974453              0.233185760
     21.5199573              0.471267439
      7.40310130             0.356618546
SP   3   1.00
     20.8479528             -0.108506975            0.0716287243
      4.80830834            -0.146451658            0.3459121030
      1.34406986             1.128688580            0.7224699570
SP   1   1.00
      0.358151393            1.0000000              1.0000000
D    1   1.00
      3.5000000              1.0000000
D    1   1.00
      0.8750000              1.0000000
F    1   1.00
      1.8500000              1.0000000
****
Al     0
S    6   1.00
  13983.1000000              0.00194267
   2098.7500000              0.0148599
    477.7050000              0.0728494
    134.3600000              0.2468300
     42.8709000              0.4872580
     14.5189000              0.3234960
SP   6   1.00
    239.6680000             -0.00292619             0.00460285
     57.4419000             -0.0374080              0.0331990
     18.2859000             -0.1144870              0.1362820
      6.5991400              0.1156350              0.3304760
      2.4904900              0.6125950              0.4491460
      0.9445400              0.3937990              0.2657040
SP   3   1.00
      1.2779000             -0.2276060             -0.0175130
      0.3975900              0.00144583             0.2445330
      0.1600950              1.0927900              0.8049340
SP   1   1.00
      0.0556577              1.0000000              1.0000000
D    1   1.00
      0.6500000              1.0000000
D    1   1.00
      0.1625000              1.0000000
F    1   1.00
      0.2500000              1.0000000
****
Si     0
S    6   1.00
  16115.9000000              0.00195948
   2425.5800000              0.01492880
    553.8670000              0.07284780
    156.3400000              0.24613000
     50.0683000              0.48591400
     17.0178000              0.32500200
SP   6   1.00
    292.7180000             -0.00278094             0.00443826
     69.8731000             -0.03571460             0.03266790
     22.3363000             -0.11498500             0.13472100
      8.1503900              0.09356340             0.32867800
      3.1345800              0.60301700             0.44964000
      1.2254300              0.41895900             0.26137200
SP   3   1.00
      1.7273800             -0.24463000            -0.01779510
      0.5729220              0.00431572             0.25353900
      0.2221920              1.09818000             0.80066900
SP   1   1.00
      0.0778369              1.00000000             1.00000000
D    1   1.00
      0.9000000              1.0000000
D    1   1.00
      0.2250000              1.0000000
F    1   1.00
      0.3200000              1.0000000
****
P     0
S    6   1.00
  19413.3000000              0.0018516
   2909.4200000              0.0142062
    661.3640000              0.0699995
    185.7590000              0.2400790
     59.1943000              0.4847620
     20.0310000              0.3352000
SP   6   1.00
    339.4780000             -0.00278217             0.00456462
     81.0101000             -0.0360499              0.03369360
     25.8780000             -0.1166310              0.13975500
      9.4522100              0.0968328              0.33936200
      3.6656600              0.6144180              0.45092100
      1.4674600              0.4037980              0.23858600
SP   3   1.00
      2.1562300             -0.2529230             -0.01776530
      0.7489970              0.0328517              0.27405800
      0.2831450              1.0812500              0.78542100
SP   1   1.00
      0.0998317              1.0000000              1.00000000
D    1   1.00
      1.1000000              1.0000000
D    1   1.00
      0.2750000              1.0000000
F    1   1.00
      0.4500000              1.0000000
****
S     0
S    6   1.00
  21917.1000000              0.0018690
   3301.4900000              0.0142300
    754.1460000              0.0696960
    212.7110000              0.2384870
     67.9896000              0.4833070
     23.0515000              0.3380740
SP   6   1.00
    423.7350000             -0.0023767              0.0040610
    100.7100000             -0.0316930              0.0306810
     32.1599000             -0.1133170              0.1304520
     11.8079000              0.0560900              0.3272050
      4.6311000              0.5922550              0.4528510
      1.8702500              0.4550060              0.2560420
SP   3   1.00
      2.6158400             -0.2503740             -0.0145110
      0.9221670              0.0669570              0.3102630
      0.3412870              1.0545100              0.7544830
SP   1   1.00
      0.1171670              1.0000000              1.0000000
D    1   1.00
      1.3000000              1.0000000
D    1   1.00
      0.3250000              1.0000000
F    1   1.00
      0.5500000              1.0000000
****
Cl     0
S    6   1.00
  25180.1000000              0.0018330
   3780.3500000              0.0140340
    860.4740000              0.0690970
    242.1450000              0.2374520
     77.3349000              0.4830340
     26.2470000              0.3398560
SP   6   1.00
    491.7650000             -0.0022974              0.0039894
    116.9840000             -0.0307140              0.0303180
     37.4153000             -0.1125280              0.1298800
     13.7834000              0.0450160              0.3279510
      5.4521500              0.5893530              0.4535270
      2.2258800              0.4652060              0.2521540
SP   3   1.00
      3.1864900             -0.2518300             -0.0142990
      1.1442700              0.0615890              0.3235720
      0.4203770              1.0601800              0.7435070
SP   1   1.00
      0.1426570              1.0000000              1.0000000
D    1   1.00
      1.5000000              1.0000000
D    1   1.00
      0.3750000              1.0000000
F    1   1.00
      0.7000000              1.0000000
****
}

set {
reference uhf
freeze_core true
e_convergence 10
d_convergence 10
dft_spherical_points 1202
dft_radial_points 99
}

e = energy('b3lyp')

print_out('Grab this energy {0}'.format(e))
--------------------------------------------------------------------------

    Molecular point group: c1

    Geometry (in Bohr), charge = 0, multiplicity = 2:

       Center              X                  Y                   Z               Mass
    ------------   -----------------  -----------------  -----------------  -----------------
         C           -0.323340214303    -0.001525631945     0.000139579272    12.000000000000
         C            0.060977599597    -1.400705885945    -2.425214643228    12.000000000000
         C            0.061174912397     2.803080046455    -0.000315751028    12.000000000000
         C            0.061147624497    -1.401411043345     2.425813478272    12.000000000000
         H            2.090667934097    -1.645328124045    -2.843664668828     1.007825032230
         H           -0.765799581703    -0.382277765945    -4.024295764928     1.007825032230
         H           -0.768433271803    -3.296074952445    -2.352708857728     1.007825032230
         H            2.086570206497     3.293165261155    -0.000385562628     1.007825032230
         H           -0.766242434703     3.680012445255     1.676582046172     1.007825032230
         H           -0.766062873403     3.681000304755    -1.677950788528     1.007825032230
         H            2.083426781397    -1.645773344845     2.843698887572     1.007825032230
         H           -0.764568994903    -3.290087552645     2.354967572272     1.007825032230
         H           -0.762124550403    -0.387938504145     4.018724557272     1.007825032230

  Charge       = 0
  Multiplicity = 2
  Basis Set: ANONYMOUSB47F6848
    Blend: 6-31G_2DFP_
  Basis Set: (ANONYMOUSB47F6848 AUX)
    Blend: DEF2-UNIVERSAL-JKFIT

    Orbital Energies [Eh]
    ---------------------

    Alpha Occupied:

       1A    -10.180342     2A    -10.167505     3A    -10.167197
       4A    -10.166342     5A     -0.797768     6A     -0.686531
       7A     -0.685844     8A     -0.530775     9A     -0.441130
      10A     -0.434782    11A     -0.434557    12A     -0.382824
      13A     -0.382374    14A     -0.363613    15A     -0.338071
      16A     -0.337923    17A     -0.168961

    Alpha Virtual:

      18A      0.076071    19A      0.134115    20A      0.134181
      21A      0.142513    22A      0.142751    23A      0.154875
      24A      0.178456    25A      0.179105    26A      0.203548
      27A      0.214807    28A      0.275714    29A      0.276257
      30A      0.399132    31A      0.399317    32A      0.403352
      33A      0.423987    34A      0.424209    35A      0.456592
      36A      0.495299    37A      0.495480    38A      0.512161
      39A      0.513978    40A      0.578498    41A      0.579129
      42A      0.591215    43A      0.592027    44A      0.602597
      45A      0.624762    46A      0.631696    47A      0.635903
      48A      0.636683    49A      0.663228    50A      0.663599
      51A      0.683544    52A      0.684177    53A      0.734994
      54A      0.824948    55A      0.825855    56A      0.853917
      57A      0.914878    58A      0.915162    59A      0.944127
      60A      0.944611    61A      0.960560    62A      0.962039
      63A      1.003465    64A      1.127713    65A      1.128489
      66A      1.142221    67A      1.163147    68A      1.163406
      69A      1.223325    70A      1.274250    71A      1.274726
      72A      1.279347    73A      1.323997    74A      1.324710
      75A      1.355982    76A      1.365745    77A      1.366360
      78A      1.392454    79A      1.403560    80A      1.404538
      81A      1.416602    82A      1.417615    83A      1.427915
      84A      1.491492    85A      1.499083    86A      1.542556
      87A      1.543108    88A      1.574170    89A      1.574727
      90A      1.669805    91A      1.739029    92A      1.739781
      93A      1.768324    94A      1.829750    95A      1.833118
      96A      1.971701    97A      2.017841    98A      2.019136
      99A      2.019400   100A      2.051854   101A      2.053482
     102A      2.737957   103A      2.739010   104A      2.790930
     105A      2.811418   106A      2.889496   107A      2.890337
     108A      2.895022   109A      2.929387   110A      2.929605
     111A      2.959005   112A      2.963836   113A      2.964929
     114A      3.034021   115A      3.071028   116A      3.071530
     117A      3.084381   118A      3.168541   119A      3.169028
     120A      3.180592   121A      3.285240   122A      3.285396
     123A      3.326818   124A      3.327501   125A      3.375612
     126A      3.489309   127A      3.490987   128A      3.514025
     129A      3.525321   130A      3.568048   131A      3.568612
     132A      3.575293   133A      3.665603   134A      3.667045
     135A      3.679615   136A      3.693554   137A      3.694792
     138A      3.775446   139A      3.778186   140A      3.789156
     141A      3.911708   142A      3.912739   143A      4.034434
     144A      4.109855   145A      4.112740   146A      4.145827
     147A      4.150286   148A      4.173357   149A      4.200813
     150A      4.202829   151A      4.205077   152A      4.211175
     153A      4.314880   154A      4.316991   155A      4.359000
     156A      4.424144   157A      4.424675   158A      4.443571
     159A      4.516356   160A      4.517274   161A      4.577723
     162A      4.578833   163A      4.617527   164A      4.709487
     165A      4.773483   166A      4.775706   167A      4.836922
     168A      4.962862   169A      5.002296   170A      5.003655
     171A      5.227837   172A      5.243099   173A      5.250498
     174A      5.352465   175A      5.358728   176A      5.479442

    Beta Occupied:

       1A    -10.168266     2A    -10.167957     3A    -10.167105
       4A    -10.166515     5A     -0.781093     6A     -0.684331
       7A     -0.683650     8A     -0.511747     9A     -0.431160
      10A     -0.430930    11A     -0.421820    12A     -0.376917
      13A     -0.376450    14A     -0.362596    15A     -0.333187
      16A     -0.333053

    Beta Virtual:

      17A     -0.025743    18A      0.077080    19A      0.134975
      20A      0.135102    21A      0.144420    22A      0.144585
      23A      0.163335    24A      0.182138    25A      0.182765
      26A      0.215037    27A      0.218930    28A      0.282071
      29A      0.282595    30A      0.400306    31A      0.400489
      32A      0.419789    33A      0.426796    34A      0.427025
      35A      0.468499    36A      0.497562    37A      0.497739
      38A      0.513896    39A      0.556323    40A      0.584045
      41A      0.584682    42A      0.597420    43A      0.598187
      44A      0.610014    45A      0.628140    46A      0.631889
      47A      0.639193    48A      0.639929    49A      0.666778
      50A      0.667177    51A      0.686211    52A      0.686781
      53A      0.757517    54A      0.830084    55A      0.831056
      56A      0.855271    57A      0.922884    58A      0.923096
      59A      0.945965    60A      0.953534    61A      0.965929
      62A      0.967289    63A      1.008705    64A      1.131686
      65A      1.132576    66A      1.155597    67A      1.168248
      68A      1.168451    69A      1.232298    70A      1.279847
      71A      1.280324    72A      1.285101    73A      1.328939
      74A      1.329746    75A      1.365391    76A      1.371013
      77A      1.371584    78A      1.393515    79A      1.406993
      80A      1.408032    81A      1.421627    82A      1.422692
      83A      1.428184    84A      1.492541    85A      1.509526
      86A      1.546951    87A      1.547527    88A      1.582050
      89A      1.582591    90A      1.674650    91A      1.744785
      92A      1.745554    93A      1.779099    94A      1.833634
      95A      1.836946    96A      1.972564    97A      2.025343
      98A      2.025517    99A      2.039687   100A      2.058533
     101A      2.060237   102A      2.746290   103A      2.747351
     104A      2.811831   105A      2.816063   106A      2.902335
     107A      2.902928   108A      2.924670   109A      2.931922
     110A      2.932036   111A      2.960069   112A      2.968347
     113A      2.969507   114A      3.041955   115A      3.080885
     116A      3.081453   117A      3.086237   118A      3.184242
     119A      3.184809   120A      3.188292   121A      3.290004
     122A      3.290230   123A      3.330642   124A      3.331286
     125A      3.383431   126A      3.492073   127A      3.493682
     128A      3.512393   129A      3.528373   130A      3.574863
     131A      3.581450   132A      3.582165   133A      3.670331
     134A      3.671859   135A      3.692945   136A      3.725300
     137A      3.726229   138A      3.780027   139A      3.782660
     140A      3.817702   141A      3.921544   142A      3.922537
     143A      4.045316   144A      4.116851   145A      4.119356
     146A      4.153232   147A      4.157338   148A      4.187401
     149A      4.207498   150A      4.208982   151A      4.212079
     152A      4.215658   153A      4.322376   154A      4.324362
     155A      4.362371   156A      4.432435   157A      4.432762
     158A      4.446509   159A      4.524181   160A      4.525030
     161A      4.588360   162A      4.589394   163A      4.624722
     164A      4.719831   165A      4.780473   166A      4.782622
     167A      4.839841   168A      4.967658   169A      5.006345
     170A      5.007684   171A      5.233547   172A      5.244889
     173A      5.252287   174A      5.358951   175A      5.365198
     176A      5.481763

    Final Occupation by Irrep:
              A
    DOCC [    16 ]
    SOCC [     1 ]

  @DF-UKS Final Energy:  -157.81305339278336

   => Energetics <=

    Nuclear Repulsion Energy =            125.3946807939294672
    One-Electron Energy =                -458.7489814192055064
    Two-Electron Energy =                 195.8483954543597747
    DFT Exchange-Correlation Energy =     -20.3071482218670951
    Empirical Dispersion Energy =           0.0000000000000000
    VV10 Nonlocal Energy =                  0.0000000000000000
    Total Energy =                       -157.8130533927833596

  UHF NO Occupations:
  HONO-2 :   15  A 1.9996009
  HONO-1 :   16  A 1.9989804
  HONO-0 :   17  A 1.0000000
  LUNO+0 :   18  A 0.0010196
  LUNO+1 :   19  A 0.0003991
  LUNO+2 :   20  A 0.0001979
  LUNO+3 :   21  A 0.0001972

Computation Completed

Properties will be evaluated at   0.000000,   0.000000,   0.000000 [a0]

Properties computed using the SCF density matrix

  Nuclear Dipole Moment: [e a0]
     X:     0.8272      Y:     0.0033      Z:    -0.0025

  Electronic Dipole Moment: [e a0]
     X:    -0.7493      Y:    -0.0033      Z:     0.0049

  Dipole Moment: [e a0]
     X:     0.0779      Y:    -0.0000      Z:     0.0024     Total:     0.0780

  Dipole Moment: [D]
     X:     0.1980      Y:    -0.0000      Z:     0.0062     Total:     0.1981

*** tstop() called on n091 at Fri Nov  5 15:04:42 2021
Module time:
	user time   =     631.23 seconds =      10.52 minutes
	system time =       5.89 seconds =       0.10 minutes
	total time  =        160 seconds =       2.67 minutes
Total time:
	user time   =     631.23 seconds =      10.52 minutes
	system time =       5.89 seconds =       0.10 minutes
	total time  =        160 seconds =       2.67 minutes
Grab this energy -157.81305339278336
    Psi4 stopped on: Friday, 05 November 2021 03:04PM
    Psi4 wall time for execution: 0:02:40.01

*** Psi4 exiting successfully. Buy a developer a beer!
