                               Psi4 1.4a2.dev629

  ==> Input File <==

--------------------------------------------------------------------------
import os
memory 14 GB

molecule {
 C   -0.3233324140   -0.0050095451   -0.0024316049
 C    0.0601503288   -1.3971038544   -2.4318671753
 C    0.0616258990    2.7938378415   -0.0012479983
 C    0.0615263261   -1.3992629906    2.4331168394
 H    2.0843213520   -1.6398295855   -2.8560052948
 H   -0.7673754455   -0.3776081280   -4.0273599979
 H   -0.7671093294   -3.2870320230   -2.3594504179
 H    2.0875731748    3.2789393713    0.0033578226
 H   -0.7689438756    3.6694243231    1.6729626781
 H   -0.7602255516    3.6752193562   -1.6796312879
 H    2.0887659026   -1.6362149714    2.8564250504
 H   -0.7603075159   -3.2934712936    2.3648267602
 H   -0.7692767280   -0.3819128142    4.0273046262
units bohr
0 2
}

basis {

assign 6-31g_2dfp_

[ 6-31g_2dfp_ ]

spherical

!----------------------------------------------------------------------
! Basis Set Exchange
! Version v0.8.13
! https://www.basissetexchange.org
!----------------------------------------------------------------------
!   Basis set: 6-31G(2df,p)
! Description: 6-31G(2df,p)
!        Role: orbital
!     Version: 0  (Data from the original Basis Set Exchange)
!----------------------------------------------------------------------

****
H     0
S    3   1.00
     18.7311370              0.03349460
      2.8253937              0.23472695
      0.6401217              0.81375733
S    1   1.00
      0.1612778              1.00000000
P    1   1.00
      1.5000000              1.0000000
P    1   1.00
      0.3750000              1.0000000
****
B     0
S    6   1.00
   2068.8823000              0.0018663
    310.6495700              0.0142515
     70.6830330              0.0695516
     19.8610800              0.2325729
      6.2993048              0.4670787
      2.1270270              0.3634314
SP   3   1.00
      4.7279710             -0.1303938              0.0745976
      1.1903377             -0.1307889              0.3078467
      0.3594117              1.1309444              0.7434568
SP   1   1.00
      0.1267512              1.0000000              1.0000000
D    1   1.00
      0.8020000              1.0000000
D    1   1.00
      0.2005000              1.0000000
F    1   1.00
      0.5000000              1.0000000
****
C     0
S    6   1.00
   3047.5249000              0.0018347
    457.3695100              0.0140373
    103.9486900              0.0688426
     29.2101550              0.2321844
      9.2866630              0.4679413
      3.1639270              0.3623120
SP   3   1.00
      7.8682724             -0.1193324              0.0689991
      1.8812885             -0.1608542              0.3164240
      0.5442493              1.1434564              0.7443083
SP   1   1.00
      0.1687144              1.0000000              1.0000000
D    1   1.00
      1.2520000              1.0000000
D    1   1.00
      0.3130000              1.0000000
F    1   1.00
      0.8000000              1.0000000
****
N     0
S    6   1.00
   4173.5110000              0.0018348
    627.4579000              0.0139950
    142.9021000              0.0685870
     40.2343300              0.2322410
     12.8202100              0.4690700
      4.3904370              0.3604550
SP   3   1.00
     11.6263580             -0.1149610              0.0675800
      2.7162800             -0.1691180              0.3239070
      0.7722180              1.1458520              0.7408950
SP   1   1.00
      0.2120313              1.0000000              1.0000000
D    1   1.00
      1.8260000              1.0000000
D    1   1.00
      0.4565000              1.0000000
F    1   1.00
      1.0000000              1.0000000
****
O     0
S    6   1.00
   5484.6717000              0.0018311
    825.2349500              0.0139501
    188.0469600              0.0684451
     52.9645000              0.2327143
     16.8975700              0.4701930
      5.7996353              0.3585209
SP   3   1.00
     15.5396160             -0.1107775              0.0708743
      3.5999336             -0.1480263              0.3397528
      1.0137618              1.1307670              0.7271586
SP   1   1.00
      0.2700058              1.0000000              1.0000000
D    1   1.00
      2.5840000              1.0000000
D    1   1.00
      0.6460000              1.0000000
F    1   1.00
      1.4000000              1.0000000
****
F     0
S    6   1.00
   7001.7130900              0.0018196169
   1051.3660900              0.0139160796
    239.2856900              0.0684053245
     67.3974453              0.233185760
     21.5199573              0.471267439
      7.40310130             0.356618546
SP   3   1.00
     20.8479528             -0.108506975            0.0716287243
      4.80830834            -0.146451658            0.3459121030
      1.34406986             1.128688580            0.7224699570
SP   1   1.00
      0.358151393            1.0000000              1.0000000
D    1   1.00
      3.5000000              1.0000000
D    1   1.00
      0.8750000              1.0000000
F    1   1.00
      1.8500000              1.0000000
****
Al     0
S    6   1.00
  13983.1000000              0.00194267
   2098.7500000              0.0148599
    477.7050000              0.0728494
    134.3600000              0.2468300
     42.8709000              0.4872580
     14.5189000              0.3234960
SP   6   1.00
    239.6680000             -0.00292619             0.00460285
     57.4419000             -0.0374080              0.0331990
     18.2859000             -0.1144870              0.1362820
      6.5991400              0.1156350              0.3304760
      2.4904900              0.6125950              0.4491460
      0.9445400              0.3937990              0.2657040
SP   3   1.00
      1.2779000             -0.2276060             -0.0175130
      0.3975900              0.00144583             0.2445330
      0.1600950              1.0927900              0.8049340
SP   1   1.00
      0.0556577              1.0000000              1.0000000
D    1   1.00
      0.6500000              1.0000000
D    1   1.00
      0.1625000              1.0000000
F    1   1.00
      0.2500000              1.0000000
****
Si     0
S    6   1.00
  16115.9000000              0.00195948
   2425.5800000              0.01492880
    553.8670000              0.07284780
    156.3400000              0.24613000
     50.0683000              0.48591400
     17.0178000              0.32500200
SP   6   1.00
    292.7180000             -0.00278094             0.00443826
     69.8731000             -0.03571460             0.03266790
     22.3363000             -0.11498500             0.13472100
      8.1503900              0.09356340             0.32867800
      3.1345800              0.60301700             0.44964000
      1.2254300              0.41895900             0.26137200
SP   3   1.00
      1.7273800             -0.24463000            -0.01779510
      0.5729220              0.00431572             0.25353900
      0.2221920              1.09818000             0.80066900
SP   1   1.00
      0.0778369              1.00000000             1.00000000
D    1   1.00
      0.9000000              1.0000000
D    1   1.00
      0.2250000              1.0000000
F    1   1.00
      0.3200000              1.0000000
****
P     0
S    6   1.00
  19413.3000000              0.0018516
   2909.4200000              0.0142062
    661.3640000              0.0699995
    185.7590000              0.2400790
     59.1943000              0.4847620
     20.0310000              0.3352000
SP   6   1.00
    339.4780000             -0.00278217             0.00456462
     81.0101000             -0.0360499              0.03369360
     25.8780000             -0.1166310              0.13975500
      9.4522100              0.0968328              0.33936200
      3.6656600              0.6144180              0.45092100
      1.4674600              0.4037980              0.23858600
SP   3   1.00
      2.1562300             -0.2529230             -0.01776530
      0.7489970              0.0328517              0.27405800
      0.2831450              1.0812500              0.78542100
SP   1   1.00
      0.0998317              1.0000000              1.00000000
D    1   1.00
      1.1000000              1.0000000
D    1   1.00
      0.2750000              1.0000000
F    1   1.00
      0.4500000              1.0000000
****
S     0
S    6   1.00
  21917.1000000              0.0018690
   3301.4900000              0.0142300
    754.1460000              0.0696960
    212.7110000              0.2384870
     67.9896000              0.4833070
     23.0515000              0.3380740
SP   6   1.00
    423.7350000             -0.0023767              0.0040610
    100.7100000             -0.0316930              0.0306810
     32.1599000             -0.1133170              0.1304520
     11.8079000              0.0560900              0.3272050
      4.6311000              0.5922550              0.4528510
      1.8702500              0.4550060              0.2560420
SP   3   1.00
      2.6158400             -0.2503740             -0.0145110
      0.9221670              0.0669570              0.3102630
      0.3412870              1.0545100              0.7544830
SP   1   1.00
      0.1171670              1.0000000              1.0000000
D    1   1.00
      1.3000000              1.0000000
D    1   1.00
      0.3250000              1.0000000
F    1   1.00
      0.5500000              1.0000000
****
Cl     0
S    6   1.00
  25180.1000000              0.0018330
   3780.3500000              0.0140340
    860.4740000              0.0690970
    242.1450000              0.2374520
     77.3349000              0.4830340
     26.2470000              0.3398560
SP   6   1.00
    491.7650000             -0.0022974              0.0039894
    116.9840000             -0.0307140              0.0303180
     37.4153000             -0.1125280              0.1298800
     13.7834000              0.0450160              0.3279510
      5.4521500              0.5893530              0.4535270
      2.2258800              0.4652060              0.2521540
SP   3   1.00
      3.1864900             -0.2518300             -0.0142990
      1.1442700              0.0615890              0.3235720
      0.4203770              1.0601800              0.7435070
SP   1   1.00
      0.1426570              1.0000000              1.0000000
D    1   1.00
      1.5000000              1.0000000
D    1   1.00
      0.3750000              1.0000000
F    1   1.00
      0.7000000              1.0000000
****
}

set {
reference uhf
freeze_core true
e_convergence 10
d_convergence 10
dft_spherical_points 1202
dft_radial_points 99
}

e = energy('b3lyp')

print_out('Grab this energy {0}'.format(e))
--------------------------------------------------------------------------

    Molecular point group: c1

    Geometry (in Bohr), charge = 0, multiplicity = 2:

       Center              X                  Y                   Z               Mass
    ------------   -----------------  -----------------  -----------------  -----------------
         C           -0.323334364099    -0.003557136979    -0.001963581126    12.000000000000
         C            0.060148378701    -1.395651446279    -2.431399151526    12.000000000000
         C            0.061623948901     2.795290249621    -0.000779974526    12.000000000000
         C            0.061524376001    -1.397810582479     2.433584863174    12.000000000000
         H            2.084319401901    -1.638377177379    -2.855537271026     1.007825032230
         H           -0.767377395599    -0.376155719879    -4.026891974126     1.007825032230
         H           -0.767111279499    -3.285579614879    -2.358982394126     1.007825032230
         H            2.087571224701     3.280391779421     0.003825846374     1.007825032230
         H           -0.768945825699     3.670876731221     1.673430701874     1.007825032230
         H           -0.760227501699     3.676671764321    -1.679163264126     1.007825032230
         H            2.088763952501    -1.634762563279     2.856893074174     1.007825032230
         H           -0.760309465999    -3.292018885479     2.365294783974     1.007825032230
         H           -0.769278678099    -0.380460406079     4.027772649974     1.007825032230

  Charge       = 0
  Multiplicity = 2
  Basis Set: ANONYMOUS03270CAE
    Blend: 6-31G_2DFP_
  Basis Set: (ANONYMOUS03270CAE AUX)
    Blend: DEF2-UNIVERSAL-JKFIT

    Orbital Energies [Eh]
    ---------------------

    Alpha Occupied:

       1A    -10.180341     2A    -10.167359     3A    -10.166984
       4A    -10.166702     5A     -0.797771     6A     -0.686448
       7A     -0.685923     8A     -0.530776     9A     -0.441127
      10A     -0.434946    11A     -0.434397    12A     -0.382748
      13A     -0.382448    14A     -0.363610    15A     -0.338305
      16A     -0.337689    17A     -0.168961

    Alpha Virtual:

      18A      0.076072    19A      0.133909    20A      0.134403
      21A      0.142489    22A      0.142765    23A      0.154880
      24A      0.178554    25A      0.179001    26A      0.203544
      27A      0.214807    28A      0.275610    29A      0.276363
      30A      0.399076    31A      0.399303    32A      0.403428
      33A      0.423964    34A      0.424242    35A      0.456596
      36A      0.494983    37A      0.495787    38A      0.512172
      39A      0.513986    40A      0.578497    41A      0.579105
      42A      0.591414    43A      0.591866    44A      0.602576
      45A      0.624767    46A      0.631764    47A      0.636018
      48A      0.636490    49A      0.663114    50A      0.663713
      51A      0.683614    52A      0.684096    53A      0.734994
      54A      0.824578    55A      0.826224    56A      0.853915
      57A      0.914755    58A      0.915301    59A      0.944052
      60A      0.944515    61A      0.961142    62A      0.961650
      63A      1.003470    64A      1.126955    65A      1.129262
      66A      1.142203    67A      1.162793    68A      1.163767
      69A      1.223334    70A      1.273940    71A      1.275049
      72A      1.279360    73A      1.324210    74A      1.324498
      75A      1.355996    76A      1.365219    77A      1.366827
      78A      1.392418    79A      1.403238    80A      1.404941
      81A      1.416547    82A      1.417696    83A      1.427936
      84A      1.491433    85A      1.499068    86A      1.542473
      87A      1.543199    88A      1.572654    89A      1.576344
      90A      1.669826    91A      1.738325    92A      1.740474
      93A      1.768347    94A      1.830746    95A      1.832053
      96A      1.971725    97A      2.017518    98A      2.018375
      99A      2.020453   100A      2.049983   101A      2.055413
     102A      2.738210   103A      2.738754   104A      2.790926
     105A      2.811434   106A      2.889479   107A      2.890365
     108A      2.894999   109A      2.929255   110A      2.929736
     111A      2.958984   112A      2.963474   113A      2.965312
     114A      3.034010   115A      3.070213   116A      3.072333
     117A      3.084377   118A      3.168026   119A      3.169554
     120A      3.180586   121A      3.284595   122A      3.286020
     123A      3.326114   124A      3.328216   125A      3.375665
     126A      3.489562   127A      3.490681   128A      3.514024
     129A      3.525293   130A      3.566868   131A      3.569813
     132A      3.575347   133A      3.666147   134A      3.666595
     135A      3.679679   136A      3.693525   137A      3.694689
     138A      3.775104   139A      3.778386   140A      3.789322
     141A      3.910734   142A      3.913733   143A      4.034470
     144A      4.109672   145A      4.113088   146A      4.146368
     147A      4.149836   148A      4.173233   149A      4.201168
     150A      4.202771   151A      4.204825   152A      4.210964
     153A      4.315443   154A      4.316453   155A      4.359002
     156A      4.423835   157A      4.424952   158A      4.443549
     159A      4.515731   160A      4.517969   161A      4.576978
     162A      4.579533   163A      4.617533   164A      4.709442
     165A      4.773170   166A      4.776073   167A      4.836953
     168A      4.962846   169A      5.001800   170A      5.004136
     171A      5.228012   172A      5.246620   173A      5.247031
     174A      5.354332   175A      5.356684   176A      5.479332

    Beta Occupied:

       1A    -10.168115     2A    -10.167744     3A    -10.167467
       4A    -10.166518     5A     -0.781096     6A     -0.684248
       7A     -0.683728     8A     -0.511748     9A     -0.431326
      10A     -0.430760    11A     -0.421824    12A     -0.376840
      13A     -0.376527    14A     -0.362594    15A     -0.333432
      16A     -0.332808

    Beta Virtual:

      17A     -0.025743    18A      0.077081    19A      0.134787
      20A      0.135304    21A      0.144364    22A      0.144631
      23A      0.163339    24A      0.182217    25A      0.182682
      26A      0.215036    27A      0.218926    28A      0.281961
      29A      0.282707    30A      0.400282    31A      0.400503
      32A      0.419802    33A      0.426756    34A      0.427072
      35A      0.468507    36A      0.497240    37A      0.498055
      38A      0.513907    39A      0.556327    40A      0.584063
      41A      0.584643    42A      0.597611    43A      0.598024
      44A      0.609995    45A      0.628149    46A      0.631924
      47A      0.639280    48A      0.639797    49A      0.666666
      50A      0.667287    51A      0.686199    52A      0.686783
      53A      0.757516    54A      0.829735    55A      0.831402
      56A      0.855268    57A      0.922713    58A      0.923284
      59A      0.945911    60A      0.953428    61A      0.966411
      62A      0.966992    63A      1.008708    64A      1.130990
      65A      1.133290    66A      1.155569    67A      1.167846
      68A      1.168868    69A      1.232304    70A      1.279527
      71A      1.280654    72A      1.285117    73A      1.329200
      74A      1.329488    75A      1.365412    76A      1.370371
      77A      1.372153    78A      1.393480    79A      1.406723
      80A      1.408392    81A      1.421595    82A      1.422737
      83A      1.428213    84A      1.492485    85A      1.509511
      86A      1.546795    87A      1.547689    88A      1.580670
      89A      1.584073    90A      1.674672    91A      1.744087
      92A      1.746238    93A      1.779125    94A      1.834584
      95A      1.835926    96A      1.972587    97A      2.023955
      98A      2.026913    99A      2.039639   100A      2.056800
     101A      2.062038   102A      2.746497   103A      2.747140
     104A      2.811847   105A      2.816059   106A      2.902261
     107A      2.903005   108A      2.924636   109A      2.931801
     110A      2.932179   111A      2.960053   112A      2.968048
     113A      2.969821   114A      3.041946   115A      3.079935
     116A      3.082336   117A      3.086298   118A      3.183819
     119A      3.185197   120A      3.188318   121A      3.289464
     122A      3.290752   123A      3.329915   124A      3.332026
     125A      3.383482   126A      3.492281   127A      3.493415
     128A      3.512404   129A      3.528349   130A      3.574724
     131A      3.580607   132A      3.583223   133A      3.670975
     134A      3.671279   135A      3.692958   136A      3.725274
     137A      3.726195   138A      3.779745   139A      3.782884
     140A      3.817780   141A      3.920567   142A      3.923535
     143A      4.045357   144A      4.116493   145A      4.119895
     146A      4.153652   147A      4.156974   148A      4.187292
     149A      4.207124   150A      4.210576   151A      4.210888
     152A      4.215459   153A      4.322851   154A      4.323925
     155A      4.362365   156A      4.432031   157A      4.433137
     158A      4.446486   159A      4.523593   160A      4.525679
     161A      4.587505   162A      4.590206   163A      4.624729
     164A      4.719788   165A      4.780106   166A      4.783044
     167A      4.839872   168A      4.967639   169A      5.005830
     170A      5.008185   171A      5.233725   172A      5.248396
     173A      5.248826   174A      5.360785   175A      5.363192
     176A      5.481654

    Final Occupation by Irrep:
              A
    DOCC [    16 ]
    SOCC [     1 ]

  @DF-UKS Final Energy:  -157.81306015434859

   => Energetics <=

    Nuclear Repulsion Energy =            125.3948790271737010
    One-Electron Energy =                -458.7494006612955673
    Two-Electron Energy =                 195.8486086908358459
    DFT Exchange-Correlation Energy =     -20.3071472110625777
    Empirical Dispersion Energy =           0.0000000000000000
    VV10 Nonlocal Energy =                  0.0000000000000000
    Total Energy =                       -157.8130601543485909

  UHF NO Occupations:
  HONO-2 :   15  A 1.9996009
  HONO-1 :   16  A 1.9989804
  HONO-0 :   17  A 1.0000000
  LUNO+0 :   18  A 0.0010196
  LUNO+1 :   19  A 0.0003991
  LUNO+2 :   20  A 0.0001982
  LUNO+3 :   21  A 0.0001969

Computation Completed

Properties will be evaluated at   0.000000,   0.000000,   0.000000 [a0]

Properties computed using the SCF density matrix

  Nuclear Dipole Moment: [e a0]
     X:     0.8272      Y:     0.0102      Z:     0.0033

  Electronic Dipole Moment: [e a0]
     X:    -0.7493      Y:    -0.0110      Z:    -0.0033

  Dipole Moment: [e a0]
     X:     0.0779      Y:    -0.0007      Z:     0.0000     Total:     0.0779

  Dipole Moment: [D]
     X:     0.1980      Y:    -0.0019      Z:     0.0001     Total:     0.1980

*** tstop() called on n036 at Fri Nov  5 15:49:00 2021
Module time:
	user time   =     634.64 seconds =      10.58 minutes
	system time =      12.02 seconds =       0.20 minutes
	total time  =        163 seconds =       2.72 minutes
Total time:
	user time   =     634.64 seconds =      10.58 minutes
	system time =      12.02 seconds =       0.20 minutes
	total time  =        163 seconds =       2.72 minutes
Grab this energy -157.8130601543486
    Psi4 stopped on: Friday, 05 November 2021 03:49PM
    Psi4 wall time for execution: 0:02:42.57

*** Psi4 exiting successfully. Buy a developer a beer!
