                               Psi4 1.4a2.dev629

  ==> Input File <==

--------------------------------------------------------------------------
import os
memory 14 GB

molecule {
 C   -0.3233281740   -0.0000016307    0.0002471494
 C    0.0622842571   -1.4015793556   -2.4277453450
 C    0.0612029593    2.8033991076   -0.0001480561
 C    0.0603632366   -1.4018152549    2.4278576713
 H    2.0897951140   -1.6456850868   -2.8520487917
 H   -0.7645849325   -0.3871398626   -4.0230399073
 H   -0.7637811087   -3.2902108343   -2.3453156326
 H    2.0868487455    3.2876073237   -0.0018564726
 H   -0.7647991498    3.6783548478    1.6771758810
 H   -0.7667305731    3.6811906882   -1.6760295700
 H    2.0841693648   -1.6420165226    2.8419815493
 H   -0.7675874476   -3.2934817752    2.3517275089
 H   -0.7664601683   -0.3886459582    4.0271940152
units bohr
0 2
}

basis {

assign 6-31g_2dfp_

[ 6-31g_2dfp_ ]

spherical

!----------------------------------------------------------------------
! Basis Set Exchange
! Version v0.8.13
! https://www.basissetexchange.org
!----------------------------------------------------------------------
!   Basis set: 6-31G(2df,p)
! Description: 6-31G(2df,p)
!        Role: orbital
!     Version: 0  (Data from the original Basis Set Exchange)
!----------------------------------------------------------------------

****
H     0
S    3   1.00
     18.7311370              0.03349460
      2.8253937              0.23472695
      0.6401217              0.81375733
S    1   1.00
      0.1612778              1.00000000
P    1   1.00
      1.5000000              1.0000000
P    1   1.00
      0.3750000              1.0000000
****
B     0
S    6   1.00
   2068.8823000              0.0018663
    310.6495700              0.0142515
     70.6830330              0.0695516
     19.8610800              0.2325729
      6.2993048              0.4670787
      2.1270270              0.3634314
SP   3   1.00
      4.7279710             -0.1303938              0.0745976
      1.1903377             -0.1307889              0.3078467
      0.3594117              1.1309444              0.7434568
SP   1   1.00
      0.1267512              1.0000000              1.0000000
D    1   1.00
      0.8020000              1.0000000
D    1   1.00
      0.2005000              1.0000000
F    1   1.00
      0.5000000              1.0000000
****
C     0
S    6   1.00
   3047.5249000              0.0018347
    457.3695100              0.0140373
    103.9486900              0.0688426
     29.2101550              0.2321844
      9.2866630              0.4679413
      3.1639270              0.3623120
SP   3   1.00
      7.8682724             -0.1193324              0.0689991
      1.8812885             -0.1608542              0.3164240
      0.5442493              1.1434564              0.7443083
SP   1   1.00
      0.1687144              1.0000000              1.0000000
D    1   1.00
      1.2520000              1.0000000
D    1   1.00
      0.3130000              1.0000000
F    1   1.00
      0.8000000              1.0000000
****
N     0
S    6   1.00
   4173.5110000              0.0018348
    627.4579000              0.0139950
    142.9021000              0.0685870
     40.2343300              0.2322410
     12.8202100              0.4690700
      4.3904370              0.3604550
SP   3   1.00
     11.6263580             -0.1149610              0.0675800
      2.7162800             -0.1691180              0.3239070
      0.7722180              1.1458520              0.7408950
SP   1   1.00
      0.2120313              1.0000000              1.0000000
D    1   1.00
      1.8260000              1.0000000
D    1   1.00
      0.4565000              1.0000000
F    1   1.00
      1.0000000              1.0000000
****
O     0
S    6   1.00
   5484.6717000              0.0018311
    825.2349500              0.0139501
    188.0469600              0.0684451
     52.9645000              0.2327143
     16.8975700              0.4701930
      5.7996353              0.3585209
SP   3   1.00
     15.5396160             -0.1107775              0.0708743
      3.5999336             -0.1480263              0.3397528
      1.0137618              1.1307670              0.7271586
SP   1   1.00
      0.2700058              1.0000000              1.0000000
D    1   1.00
      2.5840000              1.0000000
D    1   1.00
      0.6460000              1.0000000
F    1   1.00
      1.4000000              1.0000000
****
F     0
S    6   1.00
   7001.7130900              0.0018196169
   1051.3660900              0.0139160796
    239.2856900              0.0684053245
     67.3974453              0.233185760
     21.5199573              0.471267439
      7.40310130             0.356618546
SP   3   1.00
     20.8479528             -0.108506975            0.0716287243
      4.80830834            -0.146451658            0.3459121030
      1.34406986             1.128688580            0.7224699570
SP   1   1.00
      0.358151393            1.0000000              1.0000000
D    1   1.00
      3.5000000              1.0000000
D    1   1.00
      0.8750000              1.0000000
F    1   1.00
      1.8500000              1.0000000
****
Al     0
S    6   1.00
  13983.1000000              0.00194267
   2098.7500000              0.0148599
    477.7050000              0.0728494
    134.3600000              0.2468300
     42.8709000              0.4872580
     14.5189000              0.3234960
SP   6   1.00
    239.6680000             -0.00292619             0.00460285
     57.4419000             -0.0374080              0.0331990
     18.2859000             -0.1144870              0.1362820
      6.5991400              0.1156350              0.3304760
      2.4904900              0.6125950              0.4491460
      0.9445400              0.3937990              0.2657040
SP   3   1.00
      1.2779000             -0.2276060             -0.0175130
      0.3975900              0.00144583             0.2445330
      0.1600950              1.0927900              0.8049340
SP   1   1.00
      0.0556577              1.0000000              1.0000000
D    1   1.00
      0.6500000              1.0000000
D    1   1.00
      0.1625000              1.0000000
F    1   1.00
      0.2500000              1.0000000
****
Si     0
S    6   1.00
  16115.9000000              0.00195948
   2425.5800000              0.01492880
    553.8670000              0.07284780
    156.3400000              0.24613000
     50.0683000              0.48591400
     17.0178000              0.32500200
SP   6   1.00
    292.7180000             -0.00278094             0.00443826
     69.8731000             -0.03571460             0.03266790
     22.3363000             -0.11498500             0.13472100
      8.1503900              0.09356340             0.32867800
      3.1345800              0.60301700             0.44964000
      1.2254300              0.41895900             0.26137200
SP   3   1.00
      1.7273800             -0.24463000            -0.01779510
      0.5729220              0.00431572             0.25353900
      0.2221920              1.09818000             0.80066900
SP   1   1.00
      0.0778369              1.00000000             1.00000000
D    1   1.00
      0.9000000              1.0000000
D    1   1.00
      0.2250000              1.0000000
F    1   1.00
      0.3200000              1.0000000
****
P     0
S    6   1.00
  19413.3000000              0.0018516
   2909.4200000              0.0142062
    661.3640000              0.0699995
    185.7590000              0.2400790
     59.1943000              0.4847620
     20.0310000              0.3352000
SP   6   1.00
    339.4780000             -0.00278217             0.00456462
     81.0101000             -0.0360499              0.03369360
     25.8780000             -0.1166310              0.13975500
      9.4522100              0.0968328              0.33936200
      3.6656600              0.6144180              0.45092100
      1.4674600              0.4037980              0.23858600
SP   3   1.00
      2.1562300             -0.2529230             -0.01776530
      0.7489970              0.0328517              0.27405800
      0.2831450              1.0812500              0.78542100
SP   1   1.00
      0.0998317              1.0000000              1.00000000
D    1   1.00
      1.1000000              1.0000000
D    1   1.00
      0.2750000              1.0000000
F    1   1.00
      0.4500000              1.0000000
****
S     0
S    6   1.00
  21917.1000000              0.0018690
   3301.4900000              0.0142300
    754.1460000              0.0696960
    212.7110000              0.2384870
     67.9896000              0.4833070
     23.0515000              0.3380740
SP   6   1.00
    423.7350000             -0.0023767              0.0040610
    100.7100000             -0.0316930              0.0306810
     32.1599000             -0.1133170              0.1304520
     11.8079000              0.0560900              0.3272050
      4.6311000              0.5922550              0.4528510
      1.8702500              0.4550060              0.2560420
SP   3   1.00
      2.6158400             -0.2503740             -0.0145110
      0.9221670              0.0669570              0.3102630
      0.3412870              1.0545100              0.7544830
SP   1   1.00
      0.1171670              1.0000000              1.0000000
D    1   1.00
      1.3000000              1.0000000
D    1   1.00
      0.3250000              1.0000000
F    1   1.00
      0.5500000              1.0000000
****
Cl     0
S    6   1.00
  25180.1000000              0.0018330
   3780.3500000              0.0140340
    860.4740000              0.0690970
    242.1450000              0.2374520
     77.3349000              0.4830340
     26.2470000              0.3398560
SP   6   1.00
    491.7650000             -0.0022974              0.0039894
    116.9840000             -0.0307140              0.0303180
     37.4153000             -0.1125280              0.1298800
     13.7834000              0.0450160              0.3279510
      5.4521500              0.5893530              0.4535270
      2.2258800              0.4652060              0.2521540
SP   3   1.00
      3.1864900             -0.2518300             -0.0142990
      1.1442700              0.0615890              0.3235720
      0.4203770              1.0601800              0.7435070
SP   1   1.00
      0.1426570              1.0000000              1.0000000
D    1   1.00
      1.5000000              1.0000000
D    1   1.00
      0.3750000              1.0000000
F    1   1.00
      0.7000000              1.0000000
****
}

set {
reference uhf
freeze_core true
e_convergence 10
d_convergence 10
dft_spherical_points 1202
dft_radial_points 99
}

e = energy('b3lyp')

print_out('Grab this energy {0}'.format(e))
--------------------------------------------------------------------------

    Molecular point group: c1

    Geometry (in Bohr), charge = 0, multiplicity = 2:

       Center              X                  Y                   Z               Mass
    ------------   -----------------  -----------------  -----------------  -----------------
         C           -0.323436470066    -0.000001753428     0.000206428466    12.000000000000
         C            0.062175961034    -1.401579478328    -2.427786065934    12.000000000000
         C            0.061094663234     2.803398984872    -0.000188777034    12.000000000000
         C            0.060254940534    -1.401815377628     2.427816950366    12.000000000000
         H            2.089686817934    -1.645685209528    -2.852089512634     1.007825032230
         H           -0.764693228566    -0.387139985328    -4.023080628234     1.007825032230
         H           -0.763889404766    -3.290210957028    -2.345356353534     1.007825032230
         H            2.086740449434     3.287607200972    -0.001897193534     1.007825032230
         H           -0.764907445866     3.678354725072     1.677135160066     1.007825032230
         H           -0.766838869166     3.681190565472    -1.676070290934     1.007825032230
         H            2.084061068734    -1.642016645328     2.841940828366     1.007825032230
         H           -0.767695743666    -3.293481897928     2.351686787966     1.007825032230
         H           -0.766568464366    -0.388646080928     4.027153294266     1.007825032230

  Charge       = 0
  Multiplicity = 2
  Basis Set: ANONYMOUS0E678425
    Blend: 6-31G_2DFP_
  Basis Set: (ANONYMOUS0E678425 AUX)
    Blend: DEF2-UNIVERSAL-JKFIT

    Orbital Energies [Eh]
    ---------------------

    Alpha Occupied:

       1A    -10.180394     2A    -10.166999     3A    -10.166967
       4A    -10.166921     5A     -0.797510     6A     -0.686207
       7A     -0.686149     8A     -0.530609     9A     -0.441115
      10A     -0.434691    11A     -0.434518    12A     -0.382961
      13A     -0.382511    14A     -0.363812    15A     -0.337992
      16A     -0.337686    17A     -0.168940

    Alpha Virtual:

      18A      0.076081    19A      0.134165    20A      0.134262
      21A      0.142555    22A      0.142967    23A      0.154775
      24A      0.178806    25A      0.179078    26A      0.203259
      27A      0.214926    28A      0.275722    29A      0.275764
      30A      0.399109    31A      0.399360    32A      0.403435
      33A      0.424049    34A      0.424253    35A      0.456414
      36A      0.495387    37A      0.495410    38A      0.512216
      39A      0.514039    40A      0.578723    41A      0.578982
      42A      0.591466    43A      0.591983    44A      0.602645
      45A      0.624883    46A      0.631978    47A      0.635986
      48A      0.636426    49A      0.663259    50A      0.663338
      51A      0.683752    52A      0.683980    53A      0.735124
      54A      0.825327    55A      0.825446    56A      0.853779
      57A      0.914748    58A      0.915384    59A      0.944063
      60A      0.944301    61A      0.961289    62A      0.961449
      63A      1.003620    64A      1.127627    65A      1.128440
      66A      1.141788    67A      1.163726    68A      1.164041
      69A      1.222905    70A      1.274254    71A      1.274456
      72A      1.279207    73A      1.324086    74A      1.324222
      75A      1.355640    76A      1.365915    77A      1.365927
      78A      1.392938    79A      1.404278    80A      1.405265
      81A      1.416773    82A      1.417448    83A      1.428182
      84A      1.490979    85A      1.499642    86A      1.542654
      87A      1.542694    88A      1.573859    89A      1.574846
      90A      1.670617    91A      1.738806    92A      1.738997
      93A      1.768354    94A      1.831411    95A      1.832271
      96A      1.971129    97A      2.018212    98A      2.018378
      99A      2.018524   100A      2.051760   101A      2.052678
     102A      2.738300   103A      2.738327   104A      2.790700
     105A      2.811342   106A      2.889670   107A      2.889994
     108A      2.894571   109A      2.929340   110A      2.929958
     111A      2.959039   112A      2.964226   113A      2.964591
     114A      3.033830   115A      3.070694   116A      3.071978
     117A      3.083949   118A      3.168454   119A      3.168909
     120A      3.179984   121A      3.285526   122A      3.285765
     123A      3.326038   124A      3.327799   125A      3.375705
     126A      3.489007   127A      3.491133   128A      3.513854
     129A      3.524984   130A      3.567982   131A      3.568174
     132A      3.575424   133A      3.666714   134A      3.667575
     135A      3.680240   136A      3.693573   137A      3.694902
     138A      3.776679   139A      3.776805   140A      3.789462
     141A      3.911000   142A      3.911255   143A      4.033897
     144A      4.111515   145A      4.111768   146A      4.148095
     147A      4.148155   148A      4.172570   149A      4.201406
     150A      4.202249   151A      4.202948   152A      4.210482
     153A      4.315870   154A      4.316261   155A      4.359611
     156A      4.425573   157A      4.425735   158A      4.445372
     159A      4.515868   160A      4.517119   161A      4.577543
     162A      4.577571   163A      4.617193   164A      4.708118
     165A      4.773207   166A      4.774380   167A      4.835577
     168A      4.964181   169A      5.003288   170A      5.004391
     171A      5.228592   172A      5.246543   173A      5.247643
     174A      5.355300   175A      5.355398   176A      5.478131

    Beta Occupied:

       1A    -10.167749     2A    -10.167722     3A    -10.167691
       4A    -10.166560     5A     -0.780850     6A     -0.684011
       7A     -0.683962     8A     -0.511534     9A     -0.431092
      10A     -0.430896    11A     -0.421856    12A     -0.377067
      13A     -0.376605    14A     -0.362800    15A     -0.333088
      16A     -0.332806

    Beta Virtual:

      17A     -0.025573    18A      0.077086    19A      0.135054
      20A      0.135136    21A      0.144446    22A      0.144814
      23A      0.163192    24A      0.182458    25A      0.182739
      26A      0.215154    27A      0.218689    28A      0.282085
      29A      0.282137    30A      0.400275    31A      0.400518
      32A      0.419875    33A      0.426857    34A      0.427064
      35A      0.468245    36A      0.497640    37A      0.497665
      38A      0.513942    39A      0.556414    40A      0.584270
      41A      0.584539    42A      0.597652    43A      0.598178
      44A      0.610069    45A      0.628222    46A      0.632141
      47A      0.639251    48A      0.639687    49A      0.666812
      50A      0.666908    51A      0.686393    52A      0.686588
      53A      0.757725    54A      0.830483    55A      0.830596
      56A      0.855120    57A      0.922749    58A      0.923333
      59A      0.945895    60A      0.953214    61A      0.966599
      62A      0.966733    63A      1.008870    64A      1.131706
      65A      1.132429    66A      1.155123    67A      1.168780
      68A      1.169160    69A      1.231935    70A      1.279833
      71A      1.280009    72A      1.284983    73A      1.329048
      74A      1.329195    75A      1.365033    76A      1.371212
      77A      1.371253    78A      1.393986    79A      1.407707
      80A      1.408703    81A      1.421818    82A      1.422487
      83A      1.428476    84A      1.492014    85A      1.510061
      86A      1.546948    87A      1.547179    88A      1.581658
      89A      1.582822    90A      1.675470    91A      1.744573
      92A      1.744758    93A      1.779092    94A      1.835246
      95A      1.836097    96A      1.971981    97A      2.024577
      98A      2.024707    99A      2.039882   100A      2.058502
     101A      2.059444   102A      2.746655   103A      2.746706
     104A      2.811755   105A      2.815870   106A      2.902387
     107A      2.902761   108A      2.924211   109A      2.931803
     110A      2.932399   111A      2.960108   112A      2.968738
     113A      2.969102   114A      3.041723   115A      3.080518
     116A      3.081887   117A      3.085757   118A      3.184300
     119A      3.184757   120A      3.187685   121A      3.290239
     122A      3.290551   123A      3.329858   124A      3.331599
     125A      3.383491   126A      3.491752   127A      3.493832
     128A      3.512221   129A      3.528066   130A      3.575016
     131A      3.581464   132A      3.581770   133A      3.671670
     134A      3.672507   135A      3.693527   136A      3.725337
     137A      3.726171   138A      3.781171   139A      3.781248
     140A      3.818046   141A      3.920849   142A      3.921115
     143A      4.044864   144A      4.118263   145A      4.118462
     146A      4.155271   147A      4.155496   148A      4.186576
     149A      4.207892   150A      4.208578   151A      4.209941
     152A      4.214936   153A      4.323431   154A      4.323765
     155A      4.362950   156A      4.433714   157A      4.433897
     158A      4.448252   159A      4.523602   160A      4.524839
     161A      4.588111   162A      4.588169   163A      4.624364
     164A      4.718460   165A      4.780133   166A      4.781366
     167A      4.838496   168A      4.968954   169A      5.007320
     170A      5.008392   171A      5.234291   172A      5.248319
     173A      5.249415   174A      5.361759   175A      5.361843
     176A      5.480445

    Final Occupation by Irrep:
              A
    DOCC [    16 ]
    SOCC [     1 ]

  @DF-UKS Final Energy:  -157.81304293163603

   => Energetics <=

    Nuclear Repulsion Energy =            125.3666594563767092
    One-Electron Energy =                -458.6938709678638020
    Two-Electron Energy =                 195.8214279907794264
    DFT Exchange-Correlation Energy =     -20.3072594109283315
    Empirical Dispersion Energy =           0.0000000000000000
    VV10 Nonlocal Energy =                  0.0000000000000000
    Total Energy =                       -157.8130429316360335

  UHF NO Occupations:
  HONO-2 :   15  A 1.9996025
  HONO-1 :   16  A 1.9989782
  HONO-0 :   17  A 1.0000000
  LUNO+0 :   18  A 0.0010218
  LUNO+1 :   19  A 0.0003975
  LUNO+2 :   20  A 0.0001985
  LUNO+3 :   21  A 0.0001982

Computation Completed

Properties will be evaluated at   0.000000,   0.000000,   0.000000 [a0]

Properties computed using the SCF density matrix

  Nuclear Dipole Moment: [e a0]
     X:     0.8264      Y:    -0.0000      Z:    -0.0003

  Electronic Dipole Moment: [e a0]
     X:    -0.7484      Y:     0.0000      Z:     0.0011

  Dipole Moment: [e a0]
     X:     0.0780      Y:     0.0000      Z:     0.0008     Total:     0.0780

  Dipole Moment: [D]
     X:     0.1984      Y:     0.0000      Z:     0.0019     Total:     0.1984

*** tstop() called on n051 at Fri Nov  5 13:24:43 2021
Module time:
	user time   =     509.74 seconds =       8.50 minutes
	system time =      11.22 seconds =       0.19 minutes
	total time  =        131 seconds =       2.18 minutes
Total time:
	user time   =     509.74 seconds =       8.50 minutes
	system time =      11.22 seconds =       0.19 minutes
	total time  =        131 seconds =       2.18 minutes
Grab this energy -157.81304293163603
    Psi4 stopped on: Friday, 05 November 2021 01:24PM
    Psi4 wall time for execution: 0:02:11.06

*** Psi4 exiting successfully. Buy a developer a beer!
