                               Psi4 1.4a2.dev629

  ==> Input File <==

--------------------------------------------------------------------------
import os
memory 14 GB

molecule {
 N    4.4311980069   -0.0013955341    0.0029836294
 X    2.2380672400    1.0000000000    0.0000000000
 C    2.2380650802    0.0026782003   -0.0071906374
 X    2.2380672400    0.0000000000    1.0000000000
 C   -0.5761500691    0.0038483519    0.0019663058
 F   -1.4361250022    1.1756094026   -2.0380483947
 F   -1.4400072890   -2.3590777011   -0.0008280403
 F   -1.4396673469    1.1783372805    2.0411171372
units bohr
}

basis {

assign 6-31g_2dfp_

[ 6-31g_2dfp_ ]
spherical

!----------------------------------------------------------------------
! Basis Set Exchange
! Version v0.8.13
! https://www.basissetexchange.org
!----------------------------------------------------------------------
!   Basis set: 6-31G(2df,p)
! Description: 6-31G(2df,p)
!        Role: orbital
!     Version: 0  (Data from the original Basis Set Exchange)
!----------------------------------------------------------------------

****
F     0
S    6   1.00
   7001.7130900              0.0018196169
   1051.3660900              0.0139160796
    239.2856900              0.0684053245
     67.3974453              0.233185760
     21.5199573              0.471267439
      7.40310130             0.356618546
SP   3   1.00
     20.8479528             -0.108506975            0.0716287243
      4.80830834            -0.146451658            0.3459121030
      1.34406986             1.128688580            0.7224699570
SP   1   1.00
      0.358151393            1.0000000              1.0000000
D    1   1.00
      3.5000000              1.0000000
D    1   1.00
      0.8750000              1.0000000
F    1   1.00
      1.8500000              1.0000000
****
C     0
S    6   1.00
   3047.5249000              0.0018347
    457.3695100              0.0140373
    103.9486900              0.0688426
     29.2101550              0.2321844
      9.2866630              0.4679413
      3.1639270              0.3623120
SP   3   1.00
      7.8682724             -0.1193324              0.0689991
      1.8812885             -0.1608542              0.3164240
      0.5442493              1.1434564              0.7443083
SP   1   1.00
      0.1687144              1.0000000              1.0000000
D    1   1.00
      1.2520000              1.0000000
D    1   1.00
      0.3130000              1.0000000
F    1   1.00
      0.8000000              1.0000000
****
N     0
S    6   1.00
   4173.5110000              0.0018348
    627.4579000              0.0139950
    142.9021000              0.0685870
     40.2343300              0.2322410
     12.8202100              0.4690700
      4.3904370              0.3604550
SP   3   1.00
     11.6263580             -0.1149610              0.0675800
      2.7162800             -0.1691180              0.3239070
      0.7722180              1.1458520              0.7408950
SP   1   1.00
      0.2120313              1.0000000              1.0000000
D    1   1.00
      1.8260000              1.0000000
D    1   1.00
      0.4565000              1.0000000
F    1   1.00
      1.0000000              1.0000000
****
}

set {
opt_type min
reference rhf
freeze_core true
e_convergence 10
d_convergence 10
ensure_bt_convergence true
dft_spherical_points 590
dft_radial_points 99
}

e = energy('b3lyp')

print_out('Grab this energy {0}'.format(e))
--------------------------------------------------------------------------

    Molecular point group: c1

    Geometry (in Bohr), charge = 0, multiplicity = 1:

       Center              X                  Y                   Z               Mass
    ------------   -----------------  -----------------  -----------------  -----------------
         N            4.431197246277    -0.000988113165     0.002755648777    14.003074004430
         C            2.238064319577     0.003085621235    -0.007418618023    12.000000000000
         C           -0.576150829723     0.004255772835     0.001738325177    12.000000000000
         F           -1.436125762823     1.176016823535    -2.038276375323    18.998403162730
         F           -1.440008049623    -2.358670280165    -0.001056020923    18.998403162730
         F           -1.439668107523     1.178744701435     2.040889156577    18.998403162730

  Charge       = 0
  Multiplicity = 1
  Basis Set: ANONYMOUS7D6CBDE3
    Blend: 6-31G_2DFP_
  Basis Set: (ANONYMOUS7D6CBDE3 AUX)
    Blend: DEF2-UNIVERSAL-JKFIT

    Orbital Energies [Eh]
    ---------------------

    Doubly Occupied:

       1A    -24.765397     2A    -24.765112     3A    -24.763440
       4A    -14.389810     5A    -10.497342     6A    -10.265178
       7A     -1.357898     8A     -1.266937     9A     -1.264643
      10A     -0.946070    11A     -0.784496    12A     -0.670036
      13A     -0.634007    14A     -0.633256    15A     -0.502736
      16A     -0.502687    17A     -0.469151    18A     -0.468241
      19A     -0.464422    20A     -0.442738    21A     -0.400406
      22A     -0.380873    23A     -0.380799

  @DF-RKS Final Energy:  -430.45976236003003

   => Energetics <=

    Nuclear Repulsion Energy =            231.4158452930497845
    One-Electron Energy =               -1053.2334729745011828
    Two-Electron Energy =                 431.0492498663944048
    DFT Exchange-Correlation Energy =     -39.6913845449730331
    Empirical Dispersion Energy =           0.0000000000000000
    VV10 Nonlocal Energy =                  0.0000000000000000
    Total Energy =                       -430.4597623600300267

  Dipole Moment: [D]
     X:    -1.5102      Y:     0.0274      Z:    -0.0016     Total:     1.5104

*** Psi4 exiting successfully. Buy a developer a beer!
