                               Psi4 1.4a2.dev629

  ==> Input File <==

--------------------------------------------------------------------------
import os
memory 14 GB

molecule {
 N    4.4312016249   -0.0033255774    0.0063354235
 X    2.2380672400    1.0000000000    0.0000000000
 C    2.2380730385    0.0011463385   -0.0045801821
 X    2.2380672400    0.0000000000    1.0000000000
 C   -0.5761513914    0.0066219164   -0.0028477466
 F   -1.4443447466    1.1805029821   -2.0464458456
 F   -1.4358885668   -2.3542020236    0.0068574065
 F   -1.4355765786    1.1692563639    2.0406809444
units bohr
}

basis {

assign 6-31g_2dfp_

[ 6-31g_2dfp_ ]
spherical

!----------------------------------------------------------------------
! Basis Set Exchange
! Version v0.8.13
! https://www.basissetexchange.org
!----------------------------------------------------------------------
!   Basis set: 6-31G(2df,p)
! Description: 6-31G(2df,p)
!        Role: orbital
!     Version: 0  (Data from the original Basis Set Exchange)
!----------------------------------------------------------------------

****
F     0
S    6   1.00
   7001.7130900              0.0018196169
   1051.3660900              0.0139160796
    239.2856900              0.0684053245
     67.3974453              0.233185760
     21.5199573              0.471267439
      7.40310130             0.356618546
SP   3   1.00
     20.8479528             -0.108506975            0.0716287243
      4.80830834            -0.146451658            0.3459121030
      1.34406986             1.128688580            0.7224699570
SP   1   1.00
      0.358151393            1.0000000              1.0000000
D    1   1.00
      3.5000000              1.0000000
D    1   1.00
      0.8750000              1.0000000
F    1   1.00
      1.8500000              1.0000000
****
C     0
S    6   1.00
   3047.5249000              0.0018347
    457.3695100              0.0140373
    103.9486900              0.0688426
     29.2101550              0.2321844
      9.2866630              0.4679413
      3.1639270              0.3623120
SP   3   1.00
      7.8682724             -0.1193324              0.0689991
      1.8812885             -0.1608542              0.3164240
      0.5442493              1.1434564              0.7443083
SP   1   1.00
      0.1687144              1.0000000              1.0000000
D    1   1.00
      1.2520000              1.0000000
D    1   1.00
      0.3130000              1.0000000
F    1   1.00
      0.8000000              1.0000000
****
N     0
S    6   1.00
   4173.5110000              0.0018348
    627.4579000              0.0139950
    142.9021000              0.0685870
     40.2343300              0.2322410
     12.8202100              0.4690700
      4.3904370              0.3604550
SP   3   1.00
     11.6263580             -0.1149610              0.0675800
      2.7162800             -0.1691180              0.3239070
      0.7722180              1.1458520              0.7408950
SP   1   1.00
      0.2120313              1.0000000              1.0000000
D    1   1.00
      1.8260000              1.0000000
D    1   1.00
      0.4565000              1.0000000
F    1   1.00
      1.0000000              1.0000000
****
}

set {
opt_type min
reference rhf
freeze_core true
e_convergence 10
d_convergence 10
ensure_bt_convergence true
dft_spherical_points 590
dft_radial_points 99
}

e = energy('b3lyp')

print_out('Grab this energy {0}'.format(e))
--------------------------------------------------------------------------

    Molecular point group: c1

    Geometry (in Bohr), charge = 0, multiplicity = 1:

       Center              X                  Y                   Z               Mass
    ------------   -----------------  -----------------  -----------------  -----------------
         N            4.431201543369    -0.002928169927     0.006121355255    14.003074004430
         C            2.238072956969     0.001543745973    -0.004794250345    12.000000000000
         C           -0.576151472931     0.007019323873    -0.003061814845    12.000000000000
         F           -1.444344828131     1.180900389573    -2.046659913845    18.998403162730
         F           -1.435888648331    -2.353804616127     0.006643338255    18.998403162730
         F           -1.435576660131     1.169653771373     2.040466876155    18.998403162730

  Charge       = 0
  Multiplicity = 1
  Basis Set: ANONYMOUSE58EF46F
    Blend: 6-31G_2DFP_
  Basis Set: (ANONYMOUSE58EF46F AUX)
    Blend: DEF2-UNIVERSAL-JKFIT

    Orbital Energies [Eh]
    ---------------------

    Doubly Occupied:

       1A    -24.765484     2A    -24.764927     3A    -24.763529
       4A    -14.389810     5A    -10.497342     6A    -10.265180
       7A     -1.357893     8A     -1.266807     9A     -1.264772
      10A     -0.946070    11A     -0.784496    12A     -0.670033
      13A     -0.634049    14A     -0.633206    15A     -0.503021
      16A     -0.502400    17A     -0.469212    18A     -0.468179
      19A     -0.464429    20A     -0.442727    21A     -0.400405
      22A     -0.380876    23A     -0.380797

  @DF-RKS Final Energy:  -430.45975209494446

   => Energetics <=

    Nuclear Repulsion Energy =            231.4164515035678562
    One-Electron Energy =               -1053.2347231196977191
    Two-Electron Energy =                 431.0499062062777966
    DFT Exchange-Correlation Energy =     -39.6913866850923611
    Empirical Dispersion Energy =           0.0000000000000000
    VV10 Nonlocal Energy =                  0.0000000000000000
    Total Energy =                       -430.4597520949444629

  Dipole Moment: [D]
     X:    -1.5102      Y:     0.0274      Z:    -0.0018     Total:     1.5104

*** Psi4 exiting successfully. Buy a developer a beer!
