                               Psi4 1.4a2.dev629

  ==> Input File <==

--------------------------------------------------------------------------
import os
memory 14 GB

molecule {
 N    4.4350443602    0.0002587172    0.0001531244
 X    2.2380672400    1.0000000000    0.0000000000
 C    2.2353336932   -0.0011293797   -0.0006499317
 X    2.2380672400   -0.0000000000    1.0000000000
 C   -0.5807478269    0.0037344082    0.0021578930
 F   -1.4374466414    1.1763666257   -2.0393446965
 F   -1.4376050271   -2.3554422660   -0.0004643611
 F   -1.4372651781    1.1762118945    2.0381479720
units bohr
}

basis {

assign 6-31g_2dfp_

[ 6-31g_2dfp_ ]
spherical

!----------------------------------------------------------------------
! Basis Set Exchange
! Version v0.8.13
! https://www.basissetexchange.org
!----------------------------------------------------------------------
!   Basis set: 6-31G(2df,p)
! Description: 6-31G(2df,p)
!        Role: orbital
!     Version: 0  (Data from the original Basis Set Exchange)
!----------------------------------------------------------------------

****
F     0
S    6   1.00
   7001.7130900              0.0018196169
   1051.3660900              0.0139160796
    239.2856900              0.0684053245
     67.3974453              0.233185760
     21.5199573              0.471267439
      7.40310130             0.356618546
SP   3   1.00
     20.8479528             -0.108506975            0.0716287243
      4.80830834            -0.146451658            0.3459121030
      1.34406986             1.128688580            0.7224699570
SP   1   1.00
      0.358151393            1.0000000              1.0000000
D    1   1.00
      3.5000000              1.0000000
D    1   1.00
      0.8750000              1.0000000
F    1   1.00
      1.8500000              1.0000000
****
C     0
S    6   1.00
   3047.5249000              0.0018347
    457.3695100              0.0140373
    103.9486900              0.0688426
     29.2101550              0.2321844
      9.2866630              0.4679413
      3.1639270              0.3623120
SP   3   1.00
      7.8682724             -0.1193324              0.0689991
      1.8812885             -0.1608542              0.3164240
      0.5442493              1.1434564              0.7443083
SP   1   1.00
      0.1687144              1.0000000              1.0000000
D    1   1.00
      1.2520000              1.0000000
D    1   1.00
      0.3130000              1.0000000
F    1   1.00
      0.8000000              1.0000000
****
N     0
S    6   1.00
   4173.5110000              0.0018348
    627.4579000              0.0139950
    142.9021000              0.0685870
     40.2343300              0.2322410
     12.8202100              0.4690700
      4.3904370              0.3604550
SP   3   1.00
     11.6263580             -0.1149610              0.0675800
      2.7162800             -0.1691180              0.3239070
      0.7722180              1.1458520              0.7408950
SP   1   1.00
      0.2120313              1.0000000              1.0000000
D    1   1.00
      1.8260000              1.0000000
D    1   1.00
      0.4565000              1.0000000
F    1   1.00
      1.0000000              1.0000000
****
}

set {
opt_type min
reference rhf
freeze_core true
e_convergence 10
d_convergence 10
ensure_bt_convergence true
dft_spherical_points 590
dft_radial_points 99
}

e = energy('b3lyp')

print_out('Grab this energy {0}'.format(e))
--------------------------------------------------------------------------

    Molecular point group: c1

    Geometry (in Bohr), charge = 0, multiplicity = 1:

       Center              X                  Y                   Z               Mass
    ------------   -----------------  -----------------  -----------------  -----------------
         N            4.434705924956     0.000464230589     0.000272265774    14.003074004430
         C            2.234995257956    -0.000923866311    -0.000530790326    12.000000000000
         C           -0.581086262144     0.003939921589     0.002277034374    12.000000000000
         F           -1.437785076644     1.176572139089    -2.039225555126    18.998403162730
         F           -1.437943462344    -2.355236752611    -0.000345219726    18.998403162730
         F           -1.437603613344     1.176417407889     2.038267113374    18.998403162730

  Charge       = 0
  Multiplicity = 1
  Basis Set: ANONYMOUS7DF8F585
    Blend: 6-31G_2DFP_
  Basis Set: (ANONYMOUS7DF8F585 AUX)
    Blend: DEF2-UNIVERSAL-JKFIT

    Orbital Energies [Eh]
    ---------------------

    Doubly Occupied:

       1A    -24.765928     2A    -24.764947     3A    -24.763969
       4A    -14.390102     5A    -10.497196     6A    -10.265371
       7A     -1.359253     8A     -1.267808     9A     -1.265823
      10A     -0.944272    11A     -0.784227    12A     -0.670660
      13A     -0.634831    14A     -0.634144    15A     -0.503308
      16A     -0.503275    17A     -0.469714    18A     -0.468871
      19A     -0.464453    20A     -0.443150    21A     -0.400068
      22A     -0.379618    23A     -0.379553

  @DF-RKS Final Energy:  -430.45958935855242

   => Energetics <=

    Nuclear Repulsion Energy =            231.5105237365098105
    One-Electron Energy =               -1053.4131479299503553
    Two-Electron Energy =                 431.1339202066109237
    DFT Exchange-Correlation Energy =     -39.6908853717228567
    Empirical Dispersion Energy =           0.0000000000000000
    VV10 Nonlocal Energy =                  0.0000000000000000
    Total Energy =                       -430.4595893585524209

  Dipole Moment: [D]
     X:    -1.5366      Y:     0.0198      Z:     0.0115     Total:     1.5368

*** Psi4 exiting successfully. Buy a developer a beer!
