                               Psi4 1.4a2.dev629

  ==> Input File <==

--------------------------------------------------------------------------
import os
memory 14 GB

molecule {
 N    4.4350226680   -0.0035854656    0.0061874148
 X    2.2380672400    1.0000000000    0.0000000000
 C    2.2353425289    0.0022834183   -0.0039334534
 X    2.2380672400    0.0000000000    1.0000000000
 C   -0.5807443249    0.0028882630   -0.0049983614
 F   -1.4431724729    1.1803080348   -2.0443545104
 F   -1.4345612714   -2.3511319521    0.0073062599
 F   -1.4345737477    1.1692377016    2.0397926506
units bohr
}

basis {

assign 6-31g_2dfp_

[ 6-31g_2dfp_ ]
spherical

!----------------------------------------------------------------------
! Basis Set Exchange
! Version v0.8.13
! https://www.basissetexchange.org
!----------------------------------------------------------------------
!   Basis set: 6-31G(2df,p)
! Description: 6-31G(2df,p)
!        Role: orbital
!     Version: 0  (Data from the original Basis Set Exchange)
!----------------------------------------------------------------------

****
F     0
S    6   1.00
   7001.7130900              0.0018196169
   1051.3660900              0.0139160796
    239.2856900              0.0684053245
     67.3974453              0.233185760
     21.5199573              0.471267439
      7.40310130             0.356618546
SP   3   1.00
     20.8479528             -0.108506975            0.0716287243
      4.80830834            -0.146451658            0.3459121030
      1.34406986             1.128688580            0.7224699570
SP   1   1.00
      0.358151393            1.0000000              1.0000000
D    1   1.00
      3.5000000              1.0000000
D    1   1.00
      0.8750000              1.0000000
F    1   1.00
      1.8500000              1.0000000
****
C     0
S    6   1.00
   3047.5249000              0.0018347
    457.3695100              0.0140373
    103.9486900              0.0688426
     29.2101550              0.2321844
      9.2866630              0.4679413
      3.1639270              0.3623120
SP   3   1.00
      7.8682724             -0.1193324              0.0689991
      1.8812885             -0.1608542              0.3164240
      0.5442493              1.1434564              0.7443083
SP   1   1.00
      0.1687144              1.0000000              1.0000000
D    1   1.00
      1.2520000              1.0000000
D    1   1.00
      0.3130000              1.0000000
F    1   1.00
      0.8000000              1.0000000
****
N     0
S    6   1.00
   4173.5110000              0.0018348
    627.4579000              0.0139950
    142.9021000              0.0685870
     40.2343300              0.2322410
     12.8202100              0.4690700
      4.3904370              0.3604550
SP   3   1.00
     11.6263580             -0.1149610              0.0675800
      2.7162800             -0.1691180              0.3239070
      0.7722180              1.1458520              0.7408950
SP   1   1.00
      0.2120313              1.0000000              1.0000000
D    1   1.00
      1.8260000              1.0000000
D    1   1.00
      0.4565000              1.0000000
F    1   1.00
      1.0000000              1.0000000
****
}

set {
opt_type min
reference rhf
freeze_core true
e_convergence 10
d_convergence 10
ensure_bt_convergence true
dft_spherical_points 590
dft_radial_points 99
}

e = energy('b3lyp')

print_out('Grab this energy {0}'.format(e))
--------------------------------------------------------------------------

    Molecular point group: c1

    Geometry (in Bohr), charge = 0, multiplicity = 1:

       Center              X                  Y                   Z               Mass
    ------------   -----------------  -----------------  -----------------  -----------------
         N            4.434684000990    -0.003393010229     0.005854774376    14.003074004430
         C            2.235003861890     0.002475873671    -0.004266093824    12.000000000000
         C           -0.581082991910     0.003080718371    -0.005331001824    12.000000000000
         F           -1.443511139910     1.180500490171    -2.044687150824    18.998403162730
         F           -1.434899938410    -2.350939496729     0.006973619476    18.998403162730
         F           -1.434912414710     1.169430156971     2.039460010176    18.998403162730

  Charge       = 0
  Multiplicity = 1
  Basis Set: ANONYMOUS0511E097
    Blend: 6-31G_2DFP_
  Basis Set: (ANONYMOUS0511E097 AUX)
    Blend: DEF2-UNIVERSAL-JKFIT

    Orbital Energies [Eh]
    ---------------------

    Doubly Occupied:

       1A    -24.765228     2A    -24.764812     3A    -24.764796
       4A    -14.390102     5A    -10.497197     6A    -10.265373
       7A     -1.359237     8A     -1.267093     9A     -1.266546
      10A     -0.944273    11A     -0.784226    12A     -0.670649
      13A     -0.634727    14A     -0.634239    15A     -0.503596
      16A     -0.502974    17A     -0.469586    18A     -0.468980
      19A     -0.464481    20A     -0.443151    21A     -0.400069
      22A     -0.379605    23A     -0.379567

  @DF-RKS Final Energy:  -430.45957706324049

   => Energetics <=

    Nuclear Repulsion Energy =            231.5111940451651265
    One-Electron Energy =               -1053.4145365719505207
    Two-Electron Energy =                 431.1346516106042372
    DFT Exchange-Correlation Energy =     -39.6908861470593166
    Empirical Dispersion Energy =           0.0000000000000000
    VV10 Nonlocal Energy =                  0.0000000000000000
    Total Energy =                       -430.4595770632404879

  Dipole Moment: [D]
     X:    -1.5365      Y:     0.0076      Z:    -0.0132     Total:     1.5366

*** Psi4 exiting successfully. Buy a developer a beer!
