                               Psi4 1.4a2.dev629

  ==> Input File <==

--------------------------------------------------------------------------
import os
memory 14 GB

molecule {
 N    4.4311963045   -0.0090831631   -0.0047348096
 X    2.2380672400    1.0000000000   -0.0000000000
 C    2.2380651686    0.0015320638   -0.0008254605
 X    2.2380672400    0.0000000000    1.0000000000
 C   -0.5761573712    0.0003383300    0.0056704625
 F   -1.4389460072    1.1842283755   -2.0394141947
 F   -1.4251880003   -2.3566748634    0.0026012509
 F   -1.4516567145    1.1796592572    2.0367027514
units bohr
}

basis {

assign 6-31g_2dfp_

[ 6-31g_2dfp_ ]
spherical

!----------------------------------------------------------------------
! Basis Set Exchange
! Version v0.8.13
! https://www.basissetexchange.org
!----------------------------------------------------------------------
!   Basis set: 6-31G(2df,p)
! Description: 6-31G(2df,p)
!        Role: orbital
!     Version: 0  (Data from the original Basis Set Exchange)
!----------------------------------------------------------------------

****
F     0
S    6   1.00
   7001.7130900              0.0018196169
   1051.3660900              0.0139160796
    239.2856900              0.0684053245
     67.3974453              0.233185760
     21.5199573              0.471267439
      7.40310130             0.356618546
SP   3   1.00
     20.8479528             -0.108506975            0.0716287243
      4.80830834            -0.146451658            0.3459121030
      1.34406986             1.128688580            0.7224699570
SP   1   1.00
      0.358151393            1.0000000              1.0000000
D    1   1.00
      3.5000000              1.0000000
D    1   1.00
      0.8750000              1.0000000
F    1   1.00
      1.8500000              1.0000000
****
C     0
S    6   1.00
   3047.5249000              0.0018347
    457.3695100              0.0140373
    103.9486900              0.0688426
     29.2101550              0.2321844
      9.2866630              0.4679413
      3.1639270              0.3623120
SP   3   1.00
      7.8682724             -0.1193324              0.0689991
      1.8812885             -0.1608542              0.3164240
      0.5442493              1.1434564              0.7443083
SP   1   1.00
      0.1687144              1.0000000              1.0000000
D    1   1.00
      1.2520000              1.0000000
D    1   1.00
      0.3130000              1.0000000
F    1   1.00
      0.8000000              1.0000000
****
N     0
S    6   1.00
   4173.5110000              0.0018348
    627.4579000              0.0139950
    142.9021000              0.0685870
     40.2343300              0.2322410
     12.8202100              0.4690700
      4.3904370              0.3604550
SP   3   1.00
     11.6263580             -0.1149610              0.0675800
      2.7162800             -0.1691180              0.3239070
      0.7722180              1.1458520              0.7408950
SP   1   1.00
      0.2120313              1.0000000              1.0000000
D    1   1.00
      1.8260000              1.0000000
D    1   1.00
      0.4565000              1.0000000
F    1   1.00
      1.0000000              1.0000000
****
}

set {
opt_type min
reference rhf
freeze_core true
e_convergence 10
d_convergence 10
ensure_bt_convergence true
dft_spherical_points 590
dft_radial_points 99
}

e = energy('b3lyp')

print_out('Grab this energy {0}'.format(e))
--------------------------------------------------------------------------

    Molecular point group: c1

    Geometry (in Bohr), charge = 0, multiplicity = 1:

       Center              X                  Y                   Z               Mass
    ------------   -----------------  -----------------  -----------------  -----------------
         N            4.431194922935    -0.009422996815    -0.004626856651    14.003074004430
         C            2.238063787035     0.001192230085    -0.000717507551    12.000000000000
         C           -0.576158752765    -0.000001503715     0.005778415449    12.000000000000
         F           -1.438947388765     1.183888541785    -2.039306241751    18.998403162730
         F           -1.425189381865    -2.357014697115     0.002709203849    18.998403162730
         F           -1.451658096065     1.179319423485     2.036810704349    18.998403162730

  Charge       = 0
  Multiplicity = 1
  Basis Set: ANONYMOUS030994E2
    Blend: 6-31G_2DFP_
  Basis Set: (ANONYMOUS030994E2 AUX)
    Blend: DEF2-UNIVERSAL-JKFIT

    Orbital Energies [Eh]
    ---------------------

    Doubly Occupied:

       1A    -24.765479     2A    -24.765135     3A    -24.763340
       4A    -14.389806     5A    -10.497343     6A    -10.265177
       7A     -1.357898     8A     -1.267026     9A     -1.264559
      10A     -0.946067    11A     -0.784497    12A     -0.670039
      13A     -0.634067    14A     -0.633195    15A     -0.502972
      16A     -0.502458    17A     -0.469236    18A     -0.468176
      19A     -0.464409    20A     -0.442732    21A     -0.400402
      22A     -0.380921    23A     -0.380745

  @DF-RKS Final Energy:  -430.45975803806658

   => Energetics <=

    Nuclear Repulsion Energy =            231.4161308517988402
    One-Electron Energy =               -1053.2340209742792467
    Two-Electron Energy =                 431.0495180988897914
    DFT Exchange-Correlation Energy =     -39.6913860144759170
    Empirical Dispersion Energy =           0.0000000000000000
    VV10 Nonlocal Energy =                  0.0000000000000000
    Total Energy =                       -430.4597580380665818

  Dipole Moment: [D]
     X:    -1.5103      Y:    -0.0078      Z:     0.0260     Total:     1.5105

*** Psi4 exiting successfully. Buy a developer a beer!
