                               Psi4 1.4a2.dev629

  ==> Input File <==

--------------------------------------------------------------------------
import os
memory 14 GB

molecule {
 N    4.4311971780   -0.0025592376   -0.0014592667
 X    2.2380672400    1.0000000000   -0.0000000000
 C    2.2380635741    0.0068241411    0.0039344841
 X    2.2380672400    0.0000000000    1.0000000000
 C   -0.5761423264   -0.0033256329   -0.0019184696
 F   -1.4386234549    1.1800878963   -2.0394043282
 F   -1.4406387296   -2.3588471833    0.0011237784
 F   -1.4365428613    1.1778200165    2.0377238020
units bohr
}

basis {

assign 6-31g_2dfp_

[ 6-31g_2dfp_ ]
spherical

!----------------------------------------------------------------------
! Basis Set Exchange
! Version v0.8.13
! https://www.basissetexchange.org
!----------------------------------------------------------------------
!   Basis set: 6-31G(2df,p)
! Description: 6-31G(2df,p)
!        Role: orbital
!     Version: 0  (Data from the original Basis Set Exchange)
!----------------------------------------------------------------------

****
F     0
S    6   1.00
   7001.7130900              0.0018196169
   1051.3660900              0.0139160796
    239.2856900              0.0684053245
     67.3974453              0.233185760
     21.5199573              0.471267439
      7.40310130             0.356618546
SP   3   1.00
     20.8479528             -0.108506975            0.0716287243
      4.80830834            -0.146451658            0.3459121030
      1.34406986             1.128688580            0.7224699570
SP   1   1.00
      0.358151393            1.0000000              1.0000000
D    1   1.00
      3.5000000              1.0000000
D    1   1.00
      0.8750000              1.0000000
F    1   1.00
      1.8500000              1.0000000
****
C     0
S    6   1.00
   3047.5249000              0.0018347
    457.3695100              0.0140373
    103.9486900              0.0688426
     29.2101550              0.2321844
      9.2866630              0.4679413
      3.1639270              0.3623120
SP   3   1.00
      7.8682724             -0.1193324              0.0689991
      1.8812885             -0.1608542              0.3164240
      0.5442493              1.1434564              0.7443083
SP   1   1.00
      0.1687144              1.0000000              1.0000000
D    1   1.00
      1.2520000              1.0000000
D    1   1.00
      0.3130000              1.0000000
F    1   1.00
      0.8000000              1.0000000
****
N     0
S    6   1.00
   4173.5110000              0.0018348
    627.4579000              0.0139950
    142.9021000              0.0685870
     40.2343300              0.2322410
     12.8202100              0.4690700
      4.3904370              0.3604550
SP   3   1.00
     11.6263580             -0.1149610              0.0675800
      2.7162800             -0.1691180              0.3239070
      0.7722180              1.1458520              0.7408950
SP   1   1.00
      0.2120313              1.0000000              1.0000000
D    1   1.00
      1.8260000              1.0000000
D    1   1.00
      0.4565000              1.0000000
F    1   1.00
      1.0000000              1.0000000
****
}

set {
opt_type min
reference rhf
freeze_core true
e_convergence 10
d_convergence 10
ensure_bt_convergence true
dft_spherical_points 590
dft_radial_points 99
}

e = energy('b3lyp')

print_out('Grab this energy {0}'.format(e))
--------------------------------------------------------------------------

    Molecular point group: c1

    Geometry (in Bohr), charge = 0, multiplicity = 1:

       Center              X                  Y                   Z               Mass
    ------------   -----------------  -----------------  -----------------  -----------------
         N            4.431196833233    -0.002436080272    -0.001387482616    14.003074004430
         C            2.238063229333     0.006947298428     0.004006268184    12.000000000000
         C           -0.576142671167    -0.003202475572    -0.001846685516    12.000000000000
         F           -1.438623799667     1.180211053628    -2.039332544116    18.998403162730
         F           -1.440639074367    -2.358724025972     0.001195562484    18.998403162730
         F           -1.436543206067     1.177943173828     2.037795586084    18.998403162730

  Charge       = 0
  Multiplicity = 1
  Basis Set: ANONYMOUS44251BEC
    Blend: 6-31G_2DFP_
  Basis Set: (ANONYMOUS44251BEC AUX)
    Blend: DEF2-UNIVERSAL-JKFIT

    Orbital Energies [Eh]
    ---------------------

    Doubly Occupied:

       1A    -24.765092     2A    -24.764647     3A    -24.764207
       4A    -14.389810     5A    -10.497342     6A    -10.265179
       7A     -1.357861     8A     -1.266119     9A     -1.265485
      10A     -0.946070    11A     -0.784492    12A     -0.670021
      13A     -0.633806    14A     -0.633445    15A     -0.502777
      16A     -0.502632    17A     -0.468895    18A     -0.468484
      19A     -0.464450    20A     -0.442751    21A     -0.400408
      22A     -0.380881    23A     -0.380790

  @DF-RKS Final Energy:  -430.45976937525290

   => Energetics <=

    Nuclear Repulsion Energy =            231.4157847104936820
    One-Electron Energy =               -1053.2334296885783260
    Two-Electron Energy =                 431.0492496853857460
    DFT Exchange-Correlation Energy =     -39.6913740825540060
    Empirical Dispersion Energy =           0.0000000000000000
    VV10 Nonlocal Energy =                  0.0000000000000000
    Total Energy =                       -430.4597693752529040

  Dipole Moment: [D]
     X:    -1.5102      Y:    -0.0049      Z:    -0.0028     Total:     1.5102

*** Psi4 exiting successfully. Buy a developer a beer!
