                               Psi4 1.4a2.dev629

  ==> Input File <==

--------------------------------------------------------------------------
import os
memory 14 GB

molecule {
 N    4.4311979704    0.0013621168   -0.0029936417
 X    2.2380672400    1.0000000000   -0.0000000000
 C    2.2380650602   -0.0026410025    0.0072121651
 X    2.2380672400   -0.0000000000    1.0000000000
 C   -0.5761500217   -0.0038388483   -0.0019618897
 F   -1.4410879226    1.1806062308   -2.0430762577
 F   -1.4371779822   -2.3533957852    0.0008060239
 F   -1.4375337241    1.1779072884    2.0400136001
units bohr
}

basis {

assign 6-31g_2dfp_

[ 6-31g_2dfp_ ]
spherical

!----------------------------------------------------------------------
! Basis Set Exchange
! Version v0.8.13
! https://www.basissetexchange.org
!----------------------------------------------------------------------
!   Basis set: 6-31G(2df,p)
! Description: 6-31G(2df,p)
!        Role: orbital
!     Version: 0  (Data from the original Basis Set Exchange)
!----------------------------------------------------------------------

****
F     0
S    6   1.00
   7001.7130900              0.0018196169
   1051.3660900              0.0139160796
    239.2856900              0.0684053245
     67.3974453              0.233185760
     21.5199573              0.471267439
      7.40310130             0.356618546
SP   3   1.00
     20.8479528             -0.108506975            0.0716287243
      4.80830834            -0.146451658            0.3459121030
      1.34406986             1.128688580            0.7224699570
SP   1   1.00
      0.358151393            1.0000000              1.0000000
D    1   1.00
      3.5000000              1.0000000
D    1   1.00
      0.8750000              1.0000000
F    1   1.00
      1.8500000              1.0000000
****
C     0
S    6   1.00
   3047.5249000              0.0018347
    457.3695100              0.0140373
    103.9486900              0.0688426
     29.2101550              0.2321844
      9.2866630              0.4679413
      3.1639270              0.3623120
SP   3   1.00
      7.8682724             -0.1193324              0.0689991
      1.8812885             -0.1608542              0.3164240
      0.5442493              1.1434564              0.7443083
SP   1   1.00
      0.1687144              1.0000000              1.0000000
D    1   1.00
      1.2520000              1.0000000
D    1   1.00
      0.3130000              1.0000000
F    1   1.00
      0.8000000              1.0000000
****
N     0
S    6   1.00
   4173.5110000              0.0018348
    627.4579000              0.0139950
    142.9021000              0.0685870
     40.2343300              0.2322410
     12.8202100              0.4690700
      4.3904370              0.3604550
SP   3   1.00
     11.6263580             -0.1149610              0.0675800
      2.7162800             -0.1691180              0.3239070
      0.7722180              1.1458520              0.7408950
SP   1   1.00
      0.2120313              1.0000000              1.0000000
D    1   1.00
      1.8260000              1.0000000
D    1   1.00
      0.4565000              1.0000000
F    1   1.00
      1.0000000              1.0000000
****
}

set {
opt_type min
reference rhf
freeze_core true
e_convergence 10
d_convergence 10
ensure_bt_convergence true
dft_spherical_points 590
dft_radial_points 99
}

e = energy('b3lyp')

print_out('Grab this energy {0}'.format(e))
--------------------------------------------------------------------------

    Molecular point group: c1

    Geometry (in Bohr), charge = 0, multiplicity = 1:

       Center              X                  Y                   Z               Mass
    ------------   -----------------  -----------------  -----------------  -----------------
         N            4.431197209856     0.000956379084    -0.002764276311    14.003074004430
         C            2.238064299656    -0.003046740216     0.007441530489    12.000000000000
         C           -0.576150782244    -0.004244586016    -0.001732524311    12.000000000000
         F           -1.441088683144     1.180200493084    -2.042846892311    18.998403162730
         F           -1.437178742744    -2.353801522916     0.001035389289    18.998403162730
         F           -1.437534484644     1.177501550684     2.040242965489    18.998403162730

  Charge       = 0
  Multiplicity = 1
  Basis Set: ANONYMOUSB05AF286
    Blend: 6-31G_2DFP_
  Basis Set: (ANONYMOUSB05AF286 AUX)
    Blend: DEF2-UNIVERSAL-JKFIT

    Orbital Energies [Eh]
    ---------------------

    Doubly Occupied:

       1A    -24.765860     2A    -24.764186     3A    -24.763902
       4A    -14.389810     5A    -10.497342     6A    -10.265178
       7A     -1.357899     8A     -1.266905     9A     -1.264674
      10A     -0.946070    11A     -0.784496    12A     -0.670036
      13A     -0.633996    14A     -0.633266    15A     -0.502734
      16A     -0.502690    17A     -0.469155    18A     -0.468231
      19A     -0.464428    20A     -0.442738    21A     -0.400406
      22A     -0.380876    23A     -0.380796

  @DF-RKS Final Energy:  -430.45976228279778

   => Energetics <=

    Nuclear Repulsion Energy =            231.4158455326104615
    One-Electron Energy =               -1053.2334731211158214
    Two-Electron Energy =                 431.0492498595052666
    DFT Exchange-Correlation Energy =     -39.6913845537976826
    Empirical Dispersion Energy =           0.0000000000000000
    VV10 Nonlocal Energy =                  0.0000000000000000
    Total Energy =                       -430.4597622827977830

  Dipole Moment: [D]
     X:    -1.5102      Y:    -0.0273      Z:     0.0016     Total:     1.5104

*** Psi4 exiting successfully. Buy a developer a beer!
