                               Psi4 1.4a2.dev629

  ==> Input File <==

--------------------------------------------------------------------------
import os
memory 14 GB

molecule {
 N    4.4258701858    0.0035589649   -0.0061869950
 X    2.2380672400    1.0000000000   -0.0000000000
 C    2.2367861283   -0.0022592671    0.0039345647
 X    2.2380672400   -0.0000000000    1.0000000000
 C   -0.5724238964   -0.0028879451    0.0050063448
 F   -1.4319157346    1.1723075594   -2.0304972398
 F   -1.4404954277   -2.3540329178   -0.0072723154
 F   -1.4405078755    1.1833136057    2.0350156407
units bohr
}

basis {

assign 6-31g_2dfp_

[ 6-31g_2dfp_ ]
spherical

!----------------------------------------------------------------------
! Basis Set Exchange
! Version v0.8.13
! https://www.basissetexchange.org
!----------------------------------------------------------------------
!   Basis set: 6-31G(2df,p)
! Description: 6-31G(2df,p)
!        Role: orbital
!     Version: 0  (Data from the original Basis Set Exchange)
!----------------------------------------------------------------------

****
F     0
S    6   1.00
   7001.7130900              0.0018196169
   1051.3660900              0.0139160796
    239.2856900              0.0684053245
     67.3974453              0.233185760
     21.5199573              0.471267439
      7.40310130             0.356618546
SP   3   1.00
     20.8479528             -0.108506975            0.0716287243
      4.80830834            -0.146451658            0.3459121030
      1.34406986             1.128688580            0.7224699570
SP   1   1.00
      0.358151393            1.0000000              1.0000000
D    1   1.00
      3.5000000              1.0000000
D    1   1.00
      0.8750000              1.0000000
F    1   1.00
      1.8500000              1.0000000
****
C     0
S    6   1.00
   3047.5249000              0.0018347
    457.3695100              0.0140373
    103.9486900              0.0688426
     29.2101550              0.2321844
      9.2866630              0.4679413
      3.1639270              0.3623120
SP   3   1.00
      7.8682724             -0.1193324              0.0689991
      1.8812885             -0.1608542              0.3164240
      0.5442493              1.1434564              0.7443083
SP   1   1.00
      0.1687144              1.0000000              1.0000000
D    1   1.00
      1.2520000              1.0000000
D    1   1.00
      0.3130000              1.0000000
F    1   1.00
      0.8000000              1.0000000
****
N     0
S    6   1.00
   4173.5110000              0.0018348
    627.4579000              0.0139950
    142.9021000              0.0685870
     40.2343300              0.2322410
     12.8202100              0.4690700
      4.3904370              0.3604550
SP   3   1.00
     11.6263580             -0.1149610              0.0675800
      2.7162800             -0.1691180              0.3239070
      0.7722180              1.1458520              0.7408950
SP   1   1.00
      0.2120313              1.0000000              1.0000000
D    1   1.00
      1.8260000              1.0000000
D    1   1.00
      0.4565000              1.0000000
F    1   1.00
      1.0000000              1.0000000
****
}

set {
opt_type min
reference rhf
freeze_core true
e_convergence 10
d_convergence 10
ensure_bt_convergence true
dft_spherical_points 590
dft_radial_points 99
}

e = energy('b3lyp')

print_out('Grab this energy {0}'.format(e))
--------------------------------------------------------------------------

    Molecular point group: c1

    Geometry (in Bohr), charge = 0, multiplicity = 1:

       Center              X                  Y                   Z               Mass
    ------------   -----------------  -----------------  -----------------  -----------------
         N            4.425769554085     0.003366918641    -0.005853662527    14.003074004430
         C            2.236685496585    -0.002451313359     0.004267897173    12.000000000000
         C           -0.572524528115    -0.003079991359     0.005339677273    12.000000000000
         F           -1.432016366315     1.172115513141    -2.030163907327    18.998403162730
         F           -1.440596059415    -2.354224964059    -0.006938982927    18.998403162730
         F           -1.440608507215     1.183121559441     2.035348973173    18.998403162730

  Charge       = 0
  Multiplicity = 1
  Basis Set: ANONYMOUS475AED0F
    Blend: 6-31G_2DFP_
  Basis Set: (ANONYMOUS475AED0F AUX)
    Blend: DEF2-UNIVERSAL-JKFIT

    Orbital Energies [Eh]
    ---------------------

    Doubly Occupied:

       1A    -24.764466     2A    -24.764449     3A    -24.764040
       4A    -14.389364     5A    -10.496556     6A    -10.264509
       7A     -1.359208     8A     -1.266476     9A     -1.265931
      10A     -0.946979    11A     -0.784893    12A     -0.670799
      13A     -0.634338    14A     -0.633854    15A     -0.503296
      16A     -0.502680    17A     -0.468825    18A     -0.468215
      19A     -0.464584    20A     -0.442421    21A     -0.400403
      22A     -0.381411    23A     -0.381369

  @DF-RKS Final Energy:  -430.45975764175222

   => Energetics <=

    Nuclear Repulsion Energy =            231.8062031777446066
    One-Electron Energy =               -1054.0032494387478437
    Two-Electron Energy =                 431.4347788049279302
    DFT Exchange-Correlation Energy =     -39.6974901856768909
    Empirical Dispersion Energy =           0.0000000000000000
    VV10 Nonlocal Energy =                  0.0000000000000000
    Total Energy =                       -430.4597576417522191

  Dipole Moment: [D]
     X:    -1.5029      Y:    -0.0076      Z:     0.0132     Total:     1.5030

*** Psi4 exiting successfully. Buy a developer a beer!
