                               Psi4 1.4a2.dev629

  ==> Input File <==

--------------------------------------------------------------------------
import os
memory 14 GB

molecule {
 N    4.4419134851   -0.0035832987    0.0061837372
 X    2.2380672400    1.0000000000    0.0000000000
 C    2.2463586229    0.0022793342   -0.0039264157
 X    2.2380672400    0.0000000000    1.0000000000
 C   -0.5721736466    0.0028906473   -0.0050024439
 F   -1.4519985581    1.1788924955   -2.0419027532
 F   -1.4433870664   -2.3483514360    0.0072775780
 F   -1.4433994568    1.1678722578    2.0373702976
units bohr
}

basis {

assign 6-31g_2dfp_

[ 6-31g_2dfp_ ]
spherical

!----------------------------------------------------------------------
! Basis Set Exchange
! Version v0.8.13
! https://www.basissetexchange.org
!----------------------------------------------------------------------
!   Basis set: 6-31G(2df,p)
! Description: 6-31G(2df,p)
!        Role: orbital
!     Version: 0  (Data from the original Basis Set Exchange)
!----------------------------------------------------------------------

****
F     0
S    6   1.00
   7001.7130900              0.0018196169
   1051.3660900              0.0139160796
    239.2856900              0.0684053245
     67.3974453              0.233185760
     21.5199573              0.471267439
      7.40310130             0.356618546
SP   3   1.00
     20.8479528             -0.108506975            0.0716287243
      4.80830834            -0.146451658            0.3459121030
      1.34406986             1.128688580            0.7224699570
SP   1   1.00
      0.358151393            1.0000000              1.0000000
D    1   1.00
      3.5000000              1.0000000
D    1   1.00
      0.8750000              1.0000000
F    1   1.00
      1.8500000              1.0000000
****
C     0
S    6   1.00
   3047.5249000              0.0018347
    457.3695100              0.0140373
    103.9486900              0.0688426
     29.2101550              0.2321844
      9.2866630              0.4679413
      3.1639270              0.3623120
SP   3   1.00
      7.8682724             -0.1193324              0.0689991
      1.8812885             -0.1608542              0.3164240
      0.5442493              1.1434564              0.7443083
SP   1   1.00
      0.1687144              1.0000000              1.0000000
D    1   1.00
      1.2520000              1.0000000
D    1   1.00
      0.3130000              1.0000000
F    1   1.00
      0.8000000              1.0000000
****
N     0
S    6   1.00
   4173.5110000              0.0018348
    627.4579000              0.0139950
    142.9021000              0.0685870
     40.2343300              0.2322410
     12.8202100              0.4690700
      4.3904370              0.3604550
SP   3   1.00
     11.6263580             -0.1149610              0.0675800
      2.7162800             -0.1691180              0.3239070
      0.7722180              1.1458520              0.7408950
SP   1   1.00
      0.2120313              1.0000000              1.0000000
D    1   1.00
      1.8260000              1.0000000
D    1   1.00
      0.4565000              1.0000000
F    1   1.00
      1.0000000              1.0000000
****
}

set {
opt_type min
reference rhf
freeze_core true
e_convergence 10
d_convergence 10
ensure_bt_convergence true
dft_spherical_points 590
dft_radial_points 99
}

e = energy('b3lyp')

print_out('Grab this energy {0}'.format(e))
--------------------------------------------------------------------------

    Molecular point group: c1

    Geometry (in Bohr), charge = 0, multiplicity = 1:

       Center              X                  Y                   Z               Mass
    ------------   -----------------  -----------------  -----------------  -----------------
         N            4.443380093097    -0.003390854628     0.005851121121    14.003074004430
         C            2.247825230897     0.002471778272    -0.004259031779    12.000000000000
         C           -0.570707038603     0.003083091372    -0.005335059979    12.000000000000
         F           -1.450531950103     1.179084939572    -2.042235369279    18.998403162730
         F           -1.441920458403    -2.348158991928     0.006944961921    18.998403162730
         F           -1.441932848803     1.168064701872     2.037037681521    18.998403162730

  Charge       = 0
  Multiplicity = 1
  Basis Set: ANONYMOUS7C8A1E17
    Blend: 6-31G_2DFP_
  Basis Set: (ANONYMOUS7C8A1E17 AUX)
    Blend: DEF2-UNIVERSAL-JKFIT

    Orbital Energies [Eh]
    ---------------------

    Doubly Occupied:

       1A    -24.764396     2A    -24.763980     3A    -24.763964
       4A    -14.390777     5A    -10.497360     6A    -10.266342
       7A     -1.358002     8A     -1.265450     9A     -1.264902
      10A     -0.946113    11A     -0.784099    12A     -0.670012
      13A     -0.633431    14A     -0.632944    15A     -0.502766
      16A     -0.502144    17A     -0.468023    18A     -0.467415
      19A     -0.465224    20A     -0.441968    21A     -0.401013
      22A     -0.381139    23A     -0.381099

  @DF-RKS Final Energy:  -430.45963946929970

   => Energetics <=

    Nuclear Repulsion Energy =            231.3296556836164655
    One-Electron Energy =               -1053.0680648285217558
    Two-Electron Energy =                 430.9687203680913967
    DFT Exchange-Correlation Energy =     -39.6899506924858301
    Empirical Dispersion Energy =           0.0000000000000000
    VV10 Nonlocal Energy =                  0.0000000000000000
    Total Energy =                       -430.4596394692997023

  Dipole Moment: [D]
     X:    -1.4797      Y:     0.0076      Z:    -0.0132     Total:     1.4798

*** Psi4 exiting successfully. Buy a developer a beer!
