                               Psi4 1.4a2.dev629

  ==> Input File <==

--------------------------------------------------------------------------
import os
memory 14 GB

molecule {
 N    4.4205019344   -0.0002157671    0.0003690194
 X    2.2380672400    1.0000000000   -0.0000000000
 C    2.2297681156    0.0007440648   -0.0012843291
 X    2.2380672400    0.0000000000    1.0000000000
 C   -0.5801530144   -0.0023730118    0.0041110520
 F   -1.4312587134    1.1814770523   -2.0463784899
 F   -1.4307711784   -2.3598759489   -0.0003531196
 F   -1.4307737637    1.1802436107    2.0435358672
units bohr
}

basis {

assign 6-31g_2dfp_

[ 6-31g_2dfp_ ]
spherical

!----------------------------------------------------------------------
! Basis Set Exchange
! Version v0.8.13
! https://www.basissetexchange.org
!----------------------------------------------------------------------
!   Basis set: 6-31G(2df,p)
! Description: 6-31G(2df,p)
!        Role: orbital
!     Version: 0  (Data from the original Basis Set Exchange)
!----------------------------------------------------------------------

****
F     0
S    6   1.00
   7001.7130900              0.0018196169
   1051.3660900              0.0139160796
    239.2856900              0.0684053245
     67.3974453              0.233185760
     21.5199573              0.471267439
      7.40310130             0.356618546
SP   3   1.00
     20.8479528             -0.108506975            0.0716287243
      4.80830834            -0.146451658            0.3459121030
      1.34406986             1.128688580            0.7224699570
SP   1   1.00
      0.358151393            1.0000000              1.0000000
D    1   1.00
      3.5000000              1.0000000
D    1   1.00
      0.8750000              1.0000000
F    1   1.00
      1.8500000              1.0000000
****
C     0
S    6   1.00
   3047.5249000              0.0018347
    457.3695100              0.0140373
    103.9486900              0.0688426
     29.2101550              0.2321844
      9.2866630              0.4679413
      3.1639270              0.3623120
SP   3   1.00
      7.8682724             -0.1193324              0.0689991
      1.8812885             -0.1608542              0.3164240
      0.5442493              1.1434564              0.7443083
SP   1   1.00
      0.1687144              1.0000000              1.0000000
D    1   1.00
      1.2520000              1.0000000
D    1   1.00
      0.3130000              1.0000000
F    1   1.00
      0.8000000              1.0000000
****
N     0
S    6   1.00
   4173.5110000              0.0018348
    627.4579000              0.0139950
    142.9021000              0.0685870
     40.2343300              0.2322410
     12.8202100              0.4690700
      4.3904370              0.3604550
SP   3   1.00
     11.6263580             -0.1149610              0.0675800
      2.7162800             -0.1691180              0.3239070
      0.7722180              1.1458520              0.7408950
SP   1   1.00
      0.2120313              1.0000000              1.0000000
D    1   1.00
      1.8260000              1.0000000
D    1   1.00
      0.4565000              1.0000000
F    1   1.00
      1.0000000              1.0000000
****
}

set {
opt_type min
reference rhf
freeze_core true
e_convergence 10
d_convergence 10
ensure_bt_convergence true
dft_spherical_points 590
dft_radial_points 99
}

e = energy('b3lyp')

print_out('Grab this energy {0}'.format(e))
--------------------------------------------------------------------------

    Molecular point group: c1

    Geometry (in Bohr), charge = 0, multiplicity = 1:

       Center              X                  Y                   Z               Mass
    ------------   -----------------  -----------------  -----------------  -----------------
         N            4.419032619505    -0.000347115321     0.000596664775    14.003074004430
         C            2.228298800705     0.000612716579    -0.001056683725    12.000000000000
         C           -0.581622329295    -0.002504360021     0.004338697375    12.000000000000
         F           -1.432728028295     1.181345704079    -2.046150844525    18.998403162730
         F           -1.432240493295    -2.360007297121    -0.000125474225    18.998403162730
         F           -1.432243078595     1.180112262479     2.043763512575    18.998403162730

  Charge       = 0
  Multiplicity = 1
  Basis Set: ANONYMOUS5B7B3E95
    Blend: 6-31G_2DFP_
  Basis Set: (ANONYMOUS5B7B3E95 AUX)
    Blend: DEF2-UNIVERSAL-JKFIT

    Orbital Energies [Eh]
    ---------------------

    Doubly Occupied:

       1A    -24.765839     2A    -24.765823     3A    -24.763867
       4A    -14.388837     5A    -10.497323     6A    -10.264013
       7A     -1.357772     8A     -1.267566     9A     -1.265245
      10A     -0.946022    11A     -0.784893    12A     -0.670046
      13A     -0.634459    14A     -0.633670    15A     -0.502967
      16A     -0.502954    17A     -0.470117    18A     -0.469186
      19A     -0.463655    20A     -0.443501    21A     -0.399793
      22A     -0.380589    23A     -0.380510

  @DF-RKS Final Energy:  -430.45981090822579

   => Energetics <=

    Nuclear Repulsion Energy =            231.5051635883158951
    One-Electron Energy =               -1053.4052568337210687
    Two-Electron Energy =                 431.1331204674512492
    DFT Exchange-Correlation Energy =     -39.6928381302718449
    Empirical Dispersion Energy =           0.0000000000000000
    VV10 Nonlocal Energy =                  0.0000000000000000
    Total Energy =                       -430.4598109082257906

  Dipole Moment: [D]
     X:    -1.5408      Y:    -0.0132      Z:     0.0229     Total:     1.5410

*** Psi4 exiting successfully. Buy a developer a beer!
