                               Psi4 1.4a2.dev629

  ==> Input File <==

--------------------------------------------------------------------------
import os
memory 14 GB

molecule {
 N    4.4273914081   -0.0036883277   -0.0021262863
 X    2.2380672400    1.0000000000    0.0000000000
 C    2.2408039062    0.0047850969    0.0027550657
 X    2.2380672400    0.0000000000    1.0000000000
 C   -0.5715673574    0.0017401673    0.0009995901
 F   -1.4397681521    1.1729790261   -2.0457303157
 F   -1.4390483868   -2.3539440426   -0.0035155974
 F   -1.4404980381    1.1781280799    2.0476175437
units bohr
}

basis {

assign 6-31g_2dfp_

[ 6-31g_2dfp_ ]
spherical

!----------------------------------------------------------------------
! Basis Set Exchange
! Version v0.8.13
! https://www.basissetexchange.org
!----------------------------------------------------------------------
!   Basis set: 6-31G(2df,p)
! Description: 6-31G(2df,p)
!        Role: orbital
!     Version: 0  (Data from the original Basis Set Exchange)
!----------------------------------------------------------------------

****
F     0
S    6   1.00
   7001.7130900              0.0018196169
   1051.3660900              0.0139160796
    239.2856900              0.0684053245
     67.3974453              0.233185760
     21.5199573              0.471267439
      7.40310130             0.356618546
SP   3   1.00
     20.8479528             -0.108506975            0.0716287243
      4.80830834            -0.146451658            0.3459121030
      1.34406986             1.128688580            0.7224699570
SP   1   1.00
      0.358151393            1.0000000              1.0000000
D    1   1.00
      3.5000000              1.0000000
D    1   1.00
      0.8750000              1.0000000
F    1   1.00
      1.8500000              1.0000000
****
C     0
S    6   1.00
   3047.5249000              0.0018347
    457.3695100              0.0140373
    103.9486900              0.0688426
     29.2101550              0.2321844
      9.2866630              0.4679413
      3.1639270              0.3623120
SP   3   1.00
      7.8682724             -0.1193324              0.0689991
      1.8812885             -0.1608542              0.3164240
      0.5442493              1.1434564              0.7443083
SP   1   1.00
      0.1687144              1.0000000              1.0000000
D    1   1.00
      1.2520000              1.0000000
D    1   1.00
      0.3130000              1.0000000
F    1   1.00
      0.8000000              1.0000000
****
N     0
S    6   1.00
   4173.5110000              0.0018348
    627.4579000              0.0139950
    142.9021000              0.0685870
     40.2343300              0.2322410
     12.8202100              0.4690700
      4.3904370              0.3604550
SP   3   1.00
     11.6263580             -0.1149610              0.0675800
      2.7162800             -0.1691180              0.3239070
      0.7722180              1.1458520              0.7408950
SP   1   1.00
      0.2120313              1.0000000              1.0000000
D    1   1.00
      1.8260000              1.0000000
D    1   1.00
      0.4565000              1.0000000
F    1   1.00
      1.0000000              1.0000000
****
}

set {
opt_type min
reference rhf
freeze_core true
e_convergence 10
d_convergence 10
ensure_bt_convergence true
dft_spherical_points 590
dft_radial_points 99
}

e = energy('b3lyp')

print_out('Grab this energy {0}'.format(e))
--------------------------------------------------------------------------

    Molecular point group: c1

    Geometry (in Bohr), charge = 0, multiplicity = 1:

       Center              X                  Y                   Z               Mass
    ------------   -----------------  -----------------  -----------------  -----------------
         N            4.427729852117    -0.003401564407    -0.001961492868    14.003074004430
         C            2.241142350217     0.005071860193     0.002919859132    12.000000000000
         C           -0.571228913383     0.002026930593     0.001164383532    12.000000000000
         F           -1.439429708083     1.173265789393    -2.045565522268    18.998403162730
         F           -1.438709942783    -2.353657279307    -0.003350803968    18.998403162730
         F           -1.440159594083     1.178414843193     2.047782337132    18.998403162730

  Charge       = 0
  Multiplicity = 1
  Basis Set: ANONYMOUSA2B7C169
    Blend: 6-31G_2DFP_
  Basis Set: (ANONYMOUSA2B7C169 AUX)
    Blend: DEF2-UNIVERSAL-JKFIT

    Orbital Energies [Eh]
    ---------------------

    Doubly Occupied:

       1A    -24.764452     2A    -24.764350     3A    -24.764251
       4A    -14.389510     5A    -10.497490     6A    -10.264979
       7A     -1.356508     8A     -1.264786     9A     -1.264782
      10A     -0.947865    11A     -0.784767    12A     -0.669399
      13A     -0.632879    14A     -0.632663    15A     -0.502398
      16A     -0.501854    17A     -0.468243    18A     -0.467943
      19A     -0.464430    20A     -0.442344    21A     -0.400732
      22A     -0.382109    23A     -0.382071

  @DF-RKS Final Energy:  -430.45987385478247

   => Energetics <=

    Nuclear Repulsion Energy =            231.3217038548775406
    One-Electron Energy =               -1053.0547314586860921
    Two-Electron Energy =                 430.9650623306866351
    DFT Exchange-Correlation Energy =     -39.6919085816605772
    Empirical Dispersion Energy =           0.0000000000000000
    VV10 Nonlocal Energy =                  0.0000000000000000
    Total Energy =                       -430.4598738547824723

  Dipole Moment: [D]
     X:    -1.4839      Y:     0.0037      Z:     0.0021     Total:     1.4839

*** Psi4 exiting successfully. Buy a developer a beer!
