                               Psi4 1.4a2.dev629

  ==> Input File <==

--------------------------------------------------------------------------
import os
memory 14 GB

molecule {
 N    4.4350190275   -0.0016680038    0.0028303809
 X    2.2380672400    1.0000000000   -0.0000000000
 C    2.2353345672    0.0038096014   -0.0065430350
 X    2.2380672400    0.0000000000    1.0000000000
 C   -0.5807429603    0.0001152128   -0.0001885933
 F   -1.4349584178    1.1754424276   -2.0359285466
 F   -1.4386533220   -2.3560350042   -0.0003700540
 F   -1.4386855146    1.1783357662    2.0401998481
units bohr
}

basis {

assign 6-31g_2dfp_

[ 6-31g_2dfp_ ]
spherical

!----------------------------------------------------------------------
! Basis Set Exchange
! Version v0.8.13
! https://www.basissetexchange.org
!----------------------------------------------------------------------
!   Basis set: 6-31G(2df,p)
! Description: 6-31G(2df,p)
!        Role: orbital
!     Version: 0  (Data from the original Basis Set Exchange)
!----------------------------------------------------------------------

****
F     0
S    6   1.00
   7001.7130900              0.0018196169
   1051.3660900              0.0139160796
    239.2856900              0.0684053245
     67.3974453              0.233185760
     21.5199573              0.471267439
      7.40310130             0.356618546
SP   3   1.00
     20.8479528             -0.108506975            0.0716287243
      4.80830834            -0.146451658            0.3459121030
      1.34406986             1.128688580            0.7224699570
SP   1   1.00
      0.358151393            1.0000000              1.0000000
D    1   1.00
      3.5000000              1.0000000
D    1   1.00
      0.8750000              1.0000000
F    1   1.00
      1.8500000              1.0000000
****
C     0
S    6   1.00
   3047.5249000              0.0018347
    457.3695100              0.0140373
    103.9486900              0.0688426
     29.2101550              0.2321844
      9.2866630              0.4679413
      3.1639270              0.3623120
SP   3   1.00
      7.8682724             -0.1193324              0.0689991
      1.8812885             -0.1608542              0.3164240
      0.5442493              1.1434564              0.7443083
SP   1   1.00
      0.1687144              1.0000000              1.0000000
D    1   1.00
      1.2520000              1.0000000
D    1   1.00
      0.3130000              1.0000000
F    1   1.00
      0.8000000              1.0000000
****
N     0
S    6   1.00
   4173.5110000              0.0018348
    627.4579000              0.0139950
    142.9021000              0.0685870
     40.2343300              0.2322410
     12.8202100              0.4690700
      4.3904370              0.3604550
SP   3   1.00
     11.6263580             -0.1149610              0.0675800
      2.7162800             -0.1691180              0.3239070
      0.7722180              1.1458520              0.7408950
SP   1   1.00
      0.2120313              1.0000000              1.0000000
D    1   1.00
      1.8260000              1.0000000
D    1   1.00
      0.4565000              1.0000000
F    1   1.00
      1.0000000              1.0000000
****
}

set {
opt_type min
reference rhf
freeze_core true
e_convergence 10
d_convergence 10
ensure_bt_convergence true
dft_spherical_points 590
dft_radial_points 99
}

e = energy('b3lyp')

print_out('Grab this energy {0}'.format(e))
--------------------------------------------------------------------------

    Molecular point group: c1

    Geometry (in Bohr), charge = 0, multiplicity = 1:

       Center              X                  Y                   Z               Mass
    ------------   -----------------  -----------------  -----------------  -----------------
         N            4.434679683060    -0.001466576960     0.002483301298    14.003074004430
         C            2.234995222760     0.004011028240    -0.006890114602    12.000000000000
         C           -0.581082304740     0.000316639640    -0.000535672902    12.000000000000
         F           -1.435297762240     1.175643854440    -2.036275626202    18.998403162730
         F           -1.438992666440    -2.355833577360    -0.000717133602    18.998403162730
         F           -1.439024859040     1.178537193040     2.039852768498    18.998403162730

  Charge       = 0
  Multiplicity = 1
  Basis Set: ANONYMOUS58041C54
    Blend: 6-31G_2DFP_
  Basis Set: (ANONYMOUS58041C54 AUX)
    Blend: DEF2-UNIVERSAL-JKFIT

    Orbital Energies [Eh]
    ---------------------

    Doubly Occupied:

       1A    -24.765412     2A    -24.764724     3A    -24.764708
       4A    -14.390103     5A    -10.497196     6A    -10.265370
       7A     -1.359243     8A     -1.267368     9A     -1.266272
      10A     -0.944273    11A     -0.784225    12A     -0.670651
      13A     -0.634622    14A     -0.634351    15A     -0.503304
      16A     -0.503267    17A     -0.469469    18A     -0.469096
      19A     -0.464476    20A     -0.443162    21A     -0.400070
      22A     -0.379606    23A     -0.379565

  @DF-RKS Final Energy:  -430.45958722121901

   => Energetics <=

    Nuclear Repulsion Energy =            231.5105860984053834
    One-Electron Energy =               -1053.4132832394343495
    Two-Electron Energy =                 431.1339938881166063
    DFT Exchange-Correlation Energy =     -39.6908839683066574
    Empirical Dispersion Energy =           0.0000000000000000
    VV10 Nonlocal Energy =                  0.0000000000000000
    Total Energy =                       -430.4595872212190102

  Dipole Moment: [D]
     X:    -1.5365      Y:     0.0075      Z:    -0.0130     Total:     1.5366

*** Psi4 exiting successfully. Buy a developer a beer!
