                               Psi4 1.4a2.dev629

  ==> Input File <==

--------------------------------------------------------------------------
import os
memory 14 GB

molecule {
 N    4.4330265482   -0.0088777092   -0.0051232467
 X    2.2380672400    1.0000000000   -0.0000000000
 C    2.2339921952    0.0007931059    0.0004624232
 X    2.2380672400    0.0000000000    1.0000000000
 C   -0.5729679389    0.0027053767    0.0015713713
 F   -1.4389218505    1.1834222841   -2.0379629635
 F   -1.4256536702   -2.3581378688    0.0029509347
 F   -1.4521619039    1.1800948114    2.0381014810
units bohr
}

basis {

assign 6-31g_2dfp_

[ 6-31g_2dfp_ ]
spherical

!----------------------------------------------------------------------
! Basis Set Exchange
! Version v0.8.13
! https://www.basissetexchange.org
!----------------------------------------------------------------------
!   Basis set: 6-31G(2df,p)
! Description: 6-31G(2df,p)
!        Role: orbital
!     Version: 0  (Data from the original Basis Set Exchange)
!----------------------------------------------------------------------

****
F     0
S    6   1.00
   7001.7130900              0.0018196169
   1051.3660900              0.0139160796
    239.2856900              0.0684053245
     67.3974453              0.233185760
     21.5199573              0.471267439
      7.40310130             0.356618546
SP   3   1.00
     20.8479528             -0.108506975            0.0716287243
      4.80830834            -0.146451658            0.3459121030
      1.34406986             1.128688580            0.7224699570
SP   1   1.00
      0.358151393            1.0000000              1.0000000
D    1   1.00
      3.5000000              1.0000000
D    1   1.00
      0.8750000              1.0000000
F    1   1.00
      1.8500000              1.0000000
****
C     0
S    6   1.00
   3047.5249000              0.0018347
    457.3695100              0.0140373
    103.9486900              0.0688426
     29.2101550              0.2321844
      9.2866630              0.4679413
      3.1639270              0.3623120
SP   3   1.00
      7.8682724             -0.1193324              0.0689991
      1.8812885             -0.1608542              0.3164240
      0.5442493              1.1434564              0.7443083
SP   1   1.00
      0.1687144              1.0000000              1.0000000
D    1   1.00
      1.2520000              1.0000000
D    1   1.00
      0.3130000              1.0000000
F    1   1.00
      0.8000000              1.0000000
****
N     0
S    6   1.00
   4173.5110000              0.0018348
    627.4579000              0.0139950
    142.9021000              0.0685870
     40.2343300              0.2322410
     12.8202100              0.4690700
      4.3904370              0.3604550
SP   3   1.00
     11.6263580             -0.1149610              0.0675800
      2.7162800             -0.1691180              0.3239070
      0.7722180              1.1458520              0.7408950
SP   1   1.00
      0.2120313              1.0000000              1.0000000
D    1   1.00
      1.8260000              1.0000000
D    1   1.00
      0.4565000              1.0000000
F    1   1.00
      1.0000000              1.0000000
****
}

set {
opt_type min
reference rhf
freeze_core true
e_convergence 10
d_convergence 10
ensure_bt_convergence true
dft_spherical_points 590
dft_radial_points 99
}

e = energy('b3lyp')

print_out('Grab this energy {0}'.format(e))
--------------------------------------------------------------------------

    Molecular point group: c1

    Geometry (in Bohr), charge = 0, multiplicity = 1:

       Center              X                  Y                   Z               Mass
    ------------   -----------------  -----------------  -----------------  -----------------
         N            4.433056317649    -0.009086800239    -0.005242817174    14.003074004430
         C            2.234021964649     0.000584014861     0.000342852726    12.000000000000
         C           -0.572938169451     0.002496285661     0.001451800826    12.000000000000
         F           -1.438892081051     1.183213193061    -2.038082533974    18.998403162730
         F           -1.425623900751    -2.358346959839     0.002831364226    18.998403162730
         F           -1.452132134451     1.179885720361     2.037981910526    18.998403162730

  Charge       = 0
  Multiplicity = 1
  Basis Set: ANONYMOUSC7599008
    Blend: 6-31G_2DFP_
  Basis Set: (ANONYMOUSC7599008 AUX)
    Blend: DEF2-UNIVERSAL-JKFIT

    Orbital Energies [Eh]
    ---------------------

    Doubly Occupied:

       1A    -24.764549     2A    -24.764370     3A    -24.764200
       4A    -14.391144     5A    -10.497042     6A    -10.266221
       7A     -1.357261     8A     -1.265675     9A     -1.264834
      10A     -0.945469    11A     -0.785357    12A     -0.670036
      13A     -0.633413    14A     -0.633030    15A     -0.502654
      16A     -0.502126    17A     -0.468576    18A     -0.468015
      19A     -0.464749    20A     -0.442441    21A     -0.401087
      22A     -0.380634    23A     -0.380472

  @DF-RKS Final Energy:  -430.45965570103556

   => Energetics <=

    Nuclear Repulsion Energy =            231.3635428794588051
    One-Electron Energy =               -1053.1349417362016538
    Two-Electron Energy =                 431.0007233488547627
    DFT Exchange-Correlation Energy =     -39.6889801931474508
    Empirical Dispersion Energy =           0.0000000000000000
    VV10 Nonlocal Energy =                  0.0000000000000000
    Total Energy =                       -430.4596557010355582

  Dipole Moment: [D]
     X:    -1.4882      Y:     0.0054      Z:     0.0032     Total:     1.4882

*** Psi4 exiting successfully. Buy a developer a beer!
