                               Psi4 1.4a2.dev629

  ==> Input File <==

--------------------------------------------------------------------------
import os
memory 14 GB

molecule {
 N    4.4419175528    0.0023351750    0.0013553732
 X    2.2380672400    1.0000000000    0.0000000000
 C    2.2463514901   -0.0057557141   -0.0033286740
 X    2.2380672400   -0.0000000000    1.0000000000
 C   -0.5721743113   -0.0004200308   -0.0002426806
 F   -1.4462656557    1.1745940061   -2.0371480921
 F   -1.4440487250   -2.3477962296   -0.0006751475
 F   -1.4484669709    1.1770427934    2.0400392211
units bohr
}

basis {

assign 6-31g_2dfp_

[ 6-31g_2dfp_ ]
spherical

!----------------------------------------------------------------------
! Basis Set Exchange
! Version v0.8.13
! https://www.basissetexchange.org
!----------------------------------------------------------------------
!   Basis set: 6-31G(2df,p)
! Description: 6-31G(2df,p)
!        Role: orbital
!     Version: 0  (Data from the original Basis Set Exchange)
!----------------------------------------------------------------------

****
F     0
S    6   1.00
   7001.7130900              0.0018196169
   1051.3660900              0.0139160796
    239.2856900              0.0684053245
     67.3974453              0.233185760
     21.5199573              0.471267439
      7.40310130             0.356618546
SP   3   1.00
     20.8479528             -0.108506975            0.0716287243
      4.80830834            -0.146451658            0.3459121030
      1.34406986             1.128688580            0.7224699570
SP   1   1.00
      0.358151393            1.0000000              1.0000000
D    1   1.00
      3.5000000              1.0000000
D    1   1.00
      0.8750000              1.0000000
F    1   1.00
      1.8500000              1.0000000
****
C     0
S    6   1.00
   3047.5249000              0.0018347
    457.3695100              0.0140373
    103.9486900              0.0688426
     29.2101550              0.2321844
      9.2866630              0.4679413
      3.1639270              0.3623120
SP   3   1.00
      7.8682724             -0.1193324              0.0689991
      1.8812885             -0.1608542              0.3164240
      0.5442493              1.1434564              0.7443083
SP   1   1.00
      0.1687144              1.0000000              1.0000000
D    1   1.00
      1.2520000              1.0000000
D    1   1.00
      0.3130000              1.0000000
F    1   1.00
      0.8000000              1.0000000
****
N     0
S    6   1.00
   4173.5110000              0.0018348
    627.4579000              0.0139950
    142.9021000              0.0685870
     40.2343300              0.2322410
     12.8202100              0.4690700
      4.3904370              0.3604550
SP   3   1.00
     11.6263580             -0.1149610              0.0675800
      2.7162800             -0.1691180              0.3239070
      0.7722180              1.1458520              0.7408950
SP   1   1.00
      0.2120313              1.0000000              1.0000000
D    1   1.00
      1.8260000              1.0000000
D    1   1.00
      0.4565000              1.0000000
F    1   1.00
      1.0000000              1.0000000
****
}

set {
opt_type min
reference rhf
freeze_core true
e_convergence 10
d_convergence 10
ensure_bt_convergence true
dft_spherical_points 590
dft_radial_points 99
}

e = energy('b3lyp')

print_out('Grab this energy {0}'.format(e))
--------------------------------------------------------------------------

    Molecular point group: c1

    Geometry (in Bohr), charge = 0, multiplicity = 1:

       Center              X                  Y                   Z               Mass
    ------------   -----------------  -----------------  -----------------  -----------------
         N            4.443383800278     0.002003007052     0.001163546092    14.003074004430
         C            2.247817737578    -0.006087882048    -0.003520501108    12.000000000000
         C           -0.570708063822    -0.000752198748    -0.000434507708    12.000000000000
         F           -1.444799408222     1.174261838152    -2.037339919208    18.998403162730
         F           -1.442582477522    -2.348128397548    -0.000866974608    18.998403162730
         F           -1.447000723422     1.176710625452     2.039847393992    18.998403162730

  Charge       = 0
  Multiplicity = 1
  Basis Set: ANONYMOUS9836EBD1
    Blend: 6-31G_2DFP_
  Basis Set: (ANONYMOUS9836EBD1 AUX)
    Blend: DEF2-UNIVERSAL-JKFIT

    Orbital Energies [Eh]
    ---------------------

    Doubly Occupied:

       1A    -24.764654     2A    -24.764115     3A    -24.763580
       4A    -14.390777     5A    -10.497359     6A    -10.266339
       7A     -1.358016     8A     -1.265845     9A     -1.264503
      10A     -0.946113    11A     -0.784100    12A     -0.670018
      13A     -0.633354    14A     -0.633030    15A     -0.502514
      16A     -0.502401    17A     -0.467935    18A     -0.467505
      19A     -0.465211    20A     -0.441978    21A     -0.401013
      22A     -0.381130    23A     -0.381107

  @DF-RKS Final Energy:  -430.45964682930014

   => Energetics <=

    Nuclear Repulsion Energy =            231.3290475891063807
    One-Electron Energy =               -1053.0667942431632582
    Two-Electron Energy =                 430.9680503027028635
    DFT Exchange-Correlation Energy =     -39.6899504779461409
    Empirical Dispersion Energy =           0.0000000000000000
    VV10 Nonlocal Energy =                  0.0000000000000000
    Total Energy =                       -430.4596468293001408

  Dipole Moment: [D]
     X:    -1.4797      Y:    -0.0150      Z:    -0.0087     Total:     1.4798

*** Psi4 exiting successfully. Buy a developer a beer!
