                               Psi4 1.4a2.dev629

  ==> Input File <==

--------------------------------------------------------------------------
import os
memory 14 GB

molecule {
 N    4.4312254483   -0.0002600349   -0.0001463735
 X    2.2380672400    1.0000000000   -0.0000000000
 C    2.2380657176    0.0011211799    0.0006494261
 X    2.2380672400    0.0000000000    1.0000000000
 C   -0.5761589873   -0.0037342853   -0.0021541581
 F   -1.4386139614    1.1789010697   -2.0401028662
 F   -1.4384294994   -2.3551140412    0.0004435343
 F   -1.4387753378    1.1790861119    2.0413104374
units bohr
}

basis {

assign 6-31g_2dfp_

[ 6-31g_2dfp_ ]
spherical

!----------------------------------------------------------------------
! Basis Set Exchange
! Version v0.8.13
! https://www.basissetexchange.org
!----------------------------------------------------------------------
!   Basis set: 6-31G(2df,p)
! Description: 6-31G(2df,p)
!        Role: orbital
!     Version: 0  (Data from the original Basis Set Exchange)
!----------------------------------------------------------------------

****
F     0
S    6   1.00
   7001.7130900              0.0018196169
   1051.3660900              0.0139160796
    239.2856900              0.0684053245
     67.3974453              0.233185760
     21.5199573              0.471267439
      7.40310130             0.356618546
SP   3   1.00
     20.8479528             -0.108506975            0.0716287243
      4.80830834            -0.146451658            0.3459121030
      1.34406986             1.128688580            0.7224699570
SP   1   1.00
      0.358151393            1.0000000              1.0000000
D    1   1.00
      3.5000000              1.0000000
D    1   1.00
      0.8750000              1.0000000
F    1   1.00
      1.8500000              1.0000000
****
C     0
S    6   1.00
   3047.5249000              0.0018347
    457.3695100              0.0140373
    103.9486900              0.0688426
     29.2101550              0.2321844
      9.2866630              0.4679413
      3.1639270              0.3623120
SP   3   1.00
      7.8682724             -0.1193324              0.0689991
      1.8812885             -0.1608542              0.3164240
      0.5442493              1.1434564              0.7443083
SP   1   1.00
      0.1687144              1.0000000              1.0000000
D    1   1.00
      1.2520000              1.0000000
D    1   1.00
      0.3130000              1.0000000
F    1   1.00
      0.8000000              1.0000000
****
N     0
S    6   1.00
   4173.5110000              0.0018348
    627.4579000              0.0139950
    142.9021000              0.0685870
     40.2343300              0.2322410
     12.8202100              0.4690700
      4.3904370              0.3604550
SP   3   1.00
     11.6263580             -0.1149610              0.0675800
      2.7162800             -0.1691180              0.3239070
      0.7722180              1.1458520              0.7408950
SP   1   1.00
      0.2120313              1.0000000              1.0000000
D    1   1.00
      1.8260000              1.0000000
D    1   1.00
      0.4565000              1.0000000
F    1   1.00
      1.0000000              1.0000000
****
}

set {
opt_type min
reference rhf
freeze_core true
e_convergence 10
d_convergence 10
ensure_bt_convergence true
dft_spherical_points 590
dft_radial_points 99
}

e = energy('b3lyp')

print_out('Grab this energy {0}'.format(e))
--------------------------------------------------------------------------

    Molecular point group: c1

    Geometry (in Bohr), charge = 0, multiplicity = 1:

       Center              X                  Y                   Z               Mass
    ------------   -----------------  -----------------  -----------------  -----------------
         N            4.431225520582    -0.000466212593    -0.000264922010    14.003074004430
         C            2.238065789882     0.000915002207     0.000530877590    12.000000000000
         C           -0.576158915018    -0.003940462993    -0.002272706610    12.000000000000
         F           -1.438613889118     1.178694892007    -2.040221414710    18.998403162730
         F           -1.438429427118    -2.355320218893     0.000324985790    18.998403162730
         F           -1.438775265518     1.178879934207     2.041191888890    18.998403162730

  Charge       = 0
  Multiplicity = 1
  Basis Set: ANONYMOUS62D752A2
    Blend: 6-31G_2DFP_
  Basis Set: (ANONYMOUS62D752A2 AUX)
    Blend: DEF2-UNIVERSAL-JKFIT

    Orbital Energies [Eh]
    ---------------------

    Doubly Occupied:

       1A    -24.765628     2A    -24.764649     3A    -24.763673
       4A    -14.389809     5A    -10.497343     6A    -10.265178
       7A     -1.357885     8A     -1.266783     9A     -1.264807
      10A     -0.946069    11A     -0.784496    12A     -0.670032
      13A     -0.633974    14A     -0.633286    15A     -0.502726
      16A     -0.502695    17A     -0.469115    18A     -0.468277
      19A     -0.464430    20A     -0.442742    21A     -0.400404
      22A     -0.380870    23A     -0.380803

  @DF-RKS Final Energy:  -430.45977304321849

   => Energetics <=

    Nuclear Repulsion Energy =            231.4154603200698546
    One-Electron Energy =               -1053.2327246682348232
    Two-Electron Energy =                 431.0488696494612668
    DFT Exchange-Correlation Energy =     -39.6913783445147956
    Empirical Dispersion Energy =           0.0000000000000000
    VV10 Nonlocal Energy =                  0.0000000000000000
    Total Energy =                       -430.4597730432184903

  Dipole Moment: [D]
     X:    -1.5102      Y:    -0.0198      Z:    -0.0114     Total:     1.5104

*** Psi4 exiting successfully. Buy a developer a beer!
