                               Psi4 1.4a2.dev629

  ==> Input File <==

--------------------------------------------------------------------------
import os
memory 14 GB

molecule {
 N    4.4273978786   -0.0041380625    0.0071696311
 X    2.2380672400    1.0000000000   -0.0000000000
 C    2.2408015448   -0.0003649767    0.0006299934
 X    2.2380672400    0.0000000000    1.0000000000
 C   -0.5715717205    0.0001588755   -0.0002756142
 F   -1.4541994066    1.1765885036   -2.0379109687
 F   -1.4325580888   -2.3605926096   -0.0092975075
 F   -1.4325568276    1.1883482696    2.0396844660
units bohr
}

basis {

assign 6-31g_2dfp_

[ 6-31g_2dfp_ ]
spherical

!----------------------------------------------------------------------
! Basis Set Exchange
! Version v0.8.13
! https://www.basissetexchange.org
!----------------------------------------------------------------------
!   Basis set: 6-31G(2df,p)
! Description: 6-31G(2df,p)
!        Role: orbital
!     Version: 0  (Data from the original Basis Set Exchange)
!----------------------------------------------------------------------

****
F     0
S    6   1.00
   7001.7130900              0.0018196169
   1051.3660900              0.0139160796
    239.2856900              0.0684053245
     67.3974453              0.233185760
     21.5199573              0.471267439
      7.40310130             0.356618546
SP   3   1.00
     20.8479528             -0.108506975            0.0716287243
      4.80830834            -0.146451658            0.3459121030
      1.34406986             1.128688580            0.7224699570
SP   1   1.00
      0.358151393            1.0000000              1.0000000
D    1   1.00
      3.5000000              1.0000000
D    1   1.00
      0.8750000              1.0000000
F    1   1.00
      1.8500000              1.0000000
****
C     0
S    6   1.00
   3047.5249000              0.0018347
    457.3695100              0.0140373
    103.9486900              0.0688426
     29.2101550              0.2321844
      9.2866630              0.4679413
      3.1639270              0.3623120
SP   3   1.00
      7.8682724             -0.1193324              0.0689991
      1.8812885             -0.1608542              0.3164240
      0.5442493              1.1434564              0.7443083
SP   1   1.00
      0.1687144              1.0000000              1.0000000
D    1   1.00
      1.2520000              1.0000000
D    1   1.00
      0.3130000              1.0000000
F    1   1.00
      0.8000000              1.0000000
****
N     0
S    6   1.00
   4173.5110000              0.0018348
    627.4579000              0.0139950
    142.9021000              0.0685870
     40.2343300              0.2322410
     12.8202100              0.4690700
      4.3904370              0.3604550
SP   3   1.00
     11.6263580             -0.1149610              0.0675800
      2.7162800             -0.1691180              0.3239070
      0.7722180              1.1458520              0.7408950
SP   1   1.00
      0.2120313              1.0000000              1.0000000
D    1   1.00
      1.8260000              1.0000000
D    1   1.00
      0.4565000              1.0000000
F    1   1.00
      1.0000000              1.0000000
****
}

set {
opt_type min
reference rhf
freeze_core true
e_convergence 10
d_convergence 10
ensure_bt_convergence true
dft_spherical_points 590
dft_radial_points 99
}

e = energy('b3lyp')

print_out('Grab this energy {0}'.format(e))
--------------------------------------------------------------------------

    Molecular point group: c1

    Geometry (in Bohr), charge = 0, multiplicity = 1:

       Center              X                  Y                   Z               Mass
    ------------   -----------------  -----------------  -----------------  -----------------
         N            4.427736167473    -0.004370838934     0.007572741056    14.003074004430
         C            2.241139833673    -0.000597753134     0.001033103356    12.000000000000
         C           -0.571233431627    -0.000073900934     0.000127495756    12.000000000000
         F           -1.453861117727     1.176355727166    -2.037507858744    18.998403162730
         F           -1.432219799927    -2.360825386034    -0.008894397544    18.998403162730
         F           -1.432218538727     1.188115493166     2.040087575956    18.998403162730

  Charge       = 0
  Multiplicity = 1
  Basis Set: ANONYMOUSEE63EDEC
    Blend: 6-31G_2DFP_
  Basis Set: (ANONYMOUSEE63EDEC AUX)
    Blend: DEF2-UNIVERSAL-JKFIT

    Orbital Energies [Eh]
    ---------------------

    Doubly Occupied:

       1A    -24.764590     2A    -24.764574     3A    -24.763890
       4A    -14.389508     5A    -10.497491     6A    -10.264977
       7A     -1.356502     8A     -1.265471     9A     -1.264103
      10A     -0.947863    11A     -0.784769    12A     -0.669397
      13A     -0.633133    14A     -0.632408    15A     -0.502571
      16A     -0.501684    17A     -0.468597    18A     -0.467598
      19A     -0.464434    20A     -0.442328    21A     -0.400730
      22A     -0.382165    23A     -0.382012

  @DF-RKS Final Energy:  -430.45986152439940

   => Energetics <=

    Nuclear Repulsion Energy =            231.3220260826167873
    One-Electron Energy =               -1053.0553742784791211
    Two-Electron Energy =                 430.9653983679030489
    DFT Exchange-Correlation Energy =     -39.6919116964400587
    Empirical Dispersion Energy =           0.0000000000000000
    VV10 Nonlocal Energy =                  0.0000000000000000
    Total Energy =                       -430.4598615243994004

  Dipole Moment: [D]
     X:    -1.4840      Y:    -0.0011      Z:     0.0018     Total:     1.4840

*** Psi4 exiting successfully. Buy a developer a beer!
