                               Psi4 1.4a2.dev629

  ==> Input File <==

--------------------------------------------------------------------------
import os
memory 14 GB

molecule {
 N    4.4365371877    0.0041522284   -0.0071895673
 X    2.2380672400    1.0000000000    0.0000000000
 C    2.2393448055    0.0003640246   -0.0006326849
 X    2.2380672400   -0.0000000000    1.0000000000
 C   -0.5799052859   -0.0001515762    0.0002621067
 F   -1.4250803650    1.1832102354   -2.0493801531
 F   -1.4467921119   -2.3590867463    0.0092741237
 F   -1.4467908503    1.1715118340    2.0476661748
units bohr
}

basis {

assign 6-31g_2dfp_

[ 6-31g_2dfp_ ]
spherical

!----------------------------------------------------------------------
! Basis Set Exchange
! Version v0.8.13
! https://www.basissetexchange.org
!----------------------------------------------------------------------
!   Basis set: 6-31G(2df,p)
! Description: 6-31G(2df,p)
!        Role: orbital
!     Version: 0  (Data from the original Basis Set Exchange)
!----------------------------------------------------------------------

****
F     0
S    6   1.00
   7001.7130900              0.0018196169
   1051.3660900              0.0139160796
    239.2856900              0.0684053245
     67.3974453              0.233185760
     21.5199573              0.471267439
      7.40310130             0.356618546
SP   3   1.00
     20.8479528             -0.108506975            0.0716287243
      4.80830834            -0.146451658            0.3459121030
      1.34406986             1.128688580            0.7224699570
SP   1   1.00
      0.358151393            1.0000000              1.0000000
D    1   1.00
      3.5000000              1.0000000
D    1   1.00
      0.8750000              1.0000000
F    1   1.00
      1.8500000              1.0000000
****
C     0
S    6   1.00
   3047.5249000              0.0018347
    457.3695100              0.0140373
    103.9486900              0.0688426
     29.2101550              0.2321844
      9.2866630              0.4679413
      3.1639270              0.3623120
SP   3   1.00
      7.8682724             -0.1193324              0.0689991
      1.8812885             -0.1608542              0.3164240
      0.5442493              1.1434564              0.7443083
SP   1   1.00
      0.1687144              1.0000000              1.0000000
D    1   1.00
      1.2520000              1.0000000
D    1   1.00
      0.3130000              1.0000000
F    1   1.00
      0.8000000              1.0000000
****
N     0
S    6   1.00
   4173.5110000              0.0018348
    627.4579000              0.0139950
    142.9021000              0.0685870
     40.2343300              0.2322410
     12.8202100              0.4690700
      4.3904370              0.3604550
SP   3   1.00
     11.6263580             -0.1149610              0.0675800
      2.7162800             -0.1691180              0.3239070
      0.7722180              1.1458520              0.7408950
SP   1   1.00
      0.2120313              1.0000000              1.0000000
D    1   1.00
      1.8260000              1.0000000
D    1   1.00
      0.4565000              1.0000000
F    1   1.00
      1.0000000              1.0000000
****
}

set {
opt_type min
reference rhf
freeze_core true
e_convergence 10
d_convergence 10
ensure_bt_convergence true
dft_spherical_points 590
dft_radial_points 99
}

e = energy('b3lyp')

print_out('Grab this energy {0}'.format(e))
--------------------------------------------------------------------------

    Molecular point group: c1

    Geometry (in Bohr), charge = 0, multiplicity = 1:

       Center              X                  Y                   Z               Mass
    ------------   -----------------  -----------------  -----------------  -----------------
         N            4.436634812793     0.004386217355    -0.007594918928    14.003074004430
         C            2.239442430593     0.000598013555    -0.001038036528    12.000000000000
         C           -0.579807660807     0.000082412755    -0.000143244928    12.000000000000
         F           -1.424982739907     1.183444224355    -2.049785504728    18.998403162730
         F           -1.446694486807    -2.358852757345     0.008868772072    18.998403162730
         F           -1.446693225207     1.171745822955     2.047260823172    18.998403162730

  Charge       = 0
  Multiplicity = 1
  Basis Set: ANONYMOUS06F4ECA1
    Blend: 6-31G_2DFP_
  Basis Set: (ANONYMOUS06F4ECA1 AUX)
    Blend: DEF2-UNIVERSAL-JKFIT

    Orbital Energies [Eh]
    ---------------------

    Doubly Occupied:

       1A    -24.765438     2A    -24.764750     3A    -24.764734
       4A    -14.390252     5A    -10.498127     6A    -10.265846
       7A     -1.356535     8A     -1.266085     9A     -1.264713
      10A     -0.945158    11A     -0.784102    12A     -0.669242
      13A     -0.633517    14A     -0.632793    15A     -0.502862
      16A     -0.501985    17A     -0.469344    18A     -0.468364
      19A     -0.464337    20A     -0.443053    21A     -0.400402
      22A     -0.380360    23A     -0.380206

  @DF-RKS Final Energy:  -430.45969290581422

   => Energetics <=

    Nuclear Repulsion Energy =            231.0275003519522841
    One-Electron Energy =               -1052.4677109542899416
    Two-Electron Energy =                 430.6658206045659654
    DFT Exchange-Correlation Energy =     -39.6853029080425657
    Empirical Dispersion Energy =           0.0000000000000000
    VV10 Nonlocal Energy =                  0.0000000000000000
    Total Energy =                       -430.4596929058142223

  Dipole Moment: [D]
     X:    -1.5176      Y:     0.0011      Z:    -0.0019     Total:     1.5176

*** Psi4 exiting successfully. Buy a developer a beer!
