                               Psi4 1.4a2.dev629

  ==> Input File <==

--------------------------------------------------------------------------
import os
memory 14 GB

molecule {
 N    4.4273863361    0.0016096840   -0.0028464603
 X    2.2380672400    1.0000000000    0.0000000000
 C    2.2408037949   -0.0037568154    0.0065621308
 X    2.2380672400   -0.0000000000    1.0000000000
 C   -0.5715600847   -0.0001055783    0.0001938966
 F   -1.4422612170    1.1807858382   -2.0451836766
 F   -1.4385117237   -2.3564429711    0.0003572678
 F   -1.4385437256    1.1779098427    2.0409168417
units bohr
}

basis {

assign 6-31g_2dfp_

[ 6-31g_2dfp_ ]
spherical

!----------------------------------------------------------------------
! Basis Set Exchange
! Version v0.8.13
! https://www.basissetexchange.org
!----------------------------------------------------------------------
!   Basis set: 6-31G(2df,p)
! Description: 6-31G(2df,p)
!        Role: orbital
!     Version: 0  (Data from the original Basis Set Exchange)
!----------------------------------------------------------------------

****
F     0
S    6   1.00
   7001.7130900              0.0018196169
   1051.3660900              0.0139160796
    239.2856900              0.0684053245
     67.3974453              0.233185760
     21.5199573              0.471267439
      7.40310130             0.356618546
SP   3   1.00
     20.8479528             -0.108506975            0.0716287243
      4.80830834            -0.146451658            0.3459121030
      1.34406986             1.128688580            0.7224699570
SP   1   1.00
      0.358151393            1.0000000              1.0000000
D    1   1.00
      3.5000000              1.0000000
D    1   1.00
      0.8750000              1.0000000
F    1   1.00
      1.8500000              1.0000000
****
C     0
S    6   1.00
   3047.5249000              0.0018347
    457.3695100              0.0140373
    103.9486900              0.0688426
     29.2101550              0.2321844
      9.2866630              0.4679413
      3.1639270              0.3623120
SP   3   1.00
      7.8682724             -0.1193324              0.0689991
      1.8812885             -0.1608542              0.3164240
      0.5442493              1.1434564              0.7443083
SP   1   1.00
      0.1687144              1.0000000              1.0000000
D    1   1.00
      1.2520000              1.0000000
D    1   1.00
      0.3130000              1.0000000
F    1   1.00
      0.8000000              1.0000000
****
N     0
S    6   1.00
   4173.5110000              0.0018348
    627.4579000              0.0139950
    142.9021000              0.0685870
     40.2343300              0.2322410
     12.8202100              0.4690700
      4.3904370              0.3604550
SP   3   1.00
     11.6263580             -0.1149610              0.0675800
      2.7162800             -0.1691180              0.3239070
      0.7722180              1.1458520              0.7408950
SP   1   1.00
      0.2120313              1.0000000              1.0000000
D    1   1.00
      1.8260000              1.0000000
D    1   1.00
      0.4565000              1.0000000
F    1   1.00
      1.0000000              1.0000000
****
}

set {
opt_type min
reference rhf
freeze_core true
e_convergence 10
d_convergence 10
ensure_bt_convergence true
dft_spherical_points 590
dft_radial_points 99
}

e = energy('b3lyp')

print_out('Grab this energy {0}'.format(e))
--------------------------------------------------------------------------

    Molecular point group: c1

    Geometry (in Bohr), charge = 0, multiplicity = 1:

       Center              X                  Y                   Z               Mass
    ------------   -----------------  -----------------  -----------------  -----------------
         N            4.427725040966     0.001409788928    -0.002498428776    14.003074004430
         C            2.241142499766    -0.003956710472     0.006910162324    12.000000000000
         C           -0.571221379834    -0.000305473372     0.000541928124    12.000000000000
         F           -1.441922512134     1.180585943128    -2.044835645076    18.998403162730
         F           -1.438173018834    -2.356642866172     0.000705299324    18.998403162730
         F           -1.438205020734     1.177709947628     2.041264873224    18.998403162730

  Charge       = 0
  Multiplicity = 1
  Basis Set: ANONYMOUS455B90D5
    Blend: 6-31G_2DFP_
  Basis Set: (ANONYMOUS455B90D5 AUX)
    Blend: DEF2-UNIVERSAL-JKFIT

    Orbital Energies [Eh]
    ---------------------

    Doubly Occupied:

       1A    -24.764592     2A    -24.764575     3A    -24.763890
       4A    -14.389511     5A    -10.497489     6A    -10.264978
       7A     -1.356512     8A     -1.265337     9A     -1.264229
      10A     -0.947866    11A     -0.784768    12A     -0.669400
      13A     -0.632914    14A     -0.632634    15A     -0.502144
      16A     -0.502109    17A     -0.468277    18A     -0.467905
      19A     -0.464432    20A     -0.442346    21A     -0.400734
      22A     -0.382108    23A     -0.382072

  @DF-RKS Final Energy:  -430.45987562044252

   => Energetics <=

    Nuclear Repulsion Energy =            231.3216070952247492
    One-Electron Energy =               -1053.0545142037028654
    Two-Electron Energy =                 430.9649409306401822
    DFT Exchange-Correlation Energy =     -39.6919094426045689
    Empirical Dispersion Energy =           0.0000000000000000
    VV10 Nonlocal Energy =                  0.0000000000000000
    Total Energy =                       -430.4598756204425172

  Dipole Moment: [D]
     X:    -1.4839      Y:    -0.0075      Z:     0.0131     Total:     1.4840

*** Psi4 exiting successfully. Buy a developer a beer!
