                               Psi4 1.4a2.dev629

  ==> Input File <==

--------------------------------------------------------------------------
import os
memory 14 GB

molecule {
 N    4.4365292379   -0.0035863542    0.0061889676
 X    2.2380672400    1.0000000000    0.0000000000
 C    2.2393549524    0.0022823252   -0.0039315856
 X    2.2380672400    0.0000000000    1.0000000000
 C   -0.5798950542    0.0028961983   -0.0050121007
 F   -1.4452965785    1.1839378458   -2.0506415252
 F   -1.4366833495   -2.3583694668    0.0073259004
 F   -1.4366958280    1.1728394517    2.0460703435
units bohr
}

basis {

assign 6-31g_2dfp_

[ 6-31g_2dfp_ ]
spherical

!----------------------------------------------------------------------
! Basis Set Exchange
! Version v0.8.13
! https://www.basissetexchange.org
!----------------------------------------------------------------------
!   Basis set: 6-31G(2df,p)
! Description: 6-31G(2df,p)
!        Role: orbital
!     Version: 0  (Data from the original Basis Set Exchange)
!----------------------------------------------------------------------

****
F     0
S    6   1.00
   7001.7130900              0.0018196169
   1051.3660900              0.0139160796
    239.2856900              0.0684053245
     67.3974453              0.233185760
     21.5199573              0.471267439
      7.40310130             0.356618546
SP   3   1.00
     20.8479528             -0.108506975            0.0716287243
      4.80830834            -0.146451658            0.3459121030
      1.34406986             1.128688580            0.7224699570
SP   1   1.00
      0.358151393            1.0000000              1.0000000
D    1   1.00
      3.5000000              1.0000000
D    1   1.00
      0.8750000              1.0000000
F    1   1.00
      1.8500000              1.0000000
****
C     0
S    6   1.00
   3047.5249000              0.0018347
    457.3695100              0.0140373
    103.9486900              0.0688426
     29.2101550              0.2321844
      9.2866630              0.4679413
      3.1639270              0.3623120
SP   3   1.00
      7.8682724             -0.1193324              0.0689991
      1.8812885             -0.1608542              0.3164240
      0.5442493              1.1434564              0.7443083
SP   1   1.00
      0.1687144              1.0000000              1.0000000
D    1   1.00
      1.2520000              1.0000000
D    1   1.00
      0.3130000              1.0000000
F    1   1.00
      0.8000000              1.0000000
****
N     0
S    6   1.00
   4173.5110000              0.0018348
    627.4579000              0.0139950
    142.9021000              0.0685870
     40.2343300              0.2322410
     12.8202100              0.4690700
      4.3904370              0.3604550
SP   3   1.00
     11.6263580             -0.1149610              0.0675800
      2.7162800             -0.1691180              0.3239070
      0.7722180              1.1458520              0.7408950
SP   1   1.00
      0.2120313              1.0000000              1.0000000
D    1   1.00
      1.8260000              1.0000000
D    1   1.00
      0.4565000              1.0000000
F    1   1.00
      1.0000000              1.0000000
****
}

set {
opt_type min
reference rhf
freeze_core true
e_convergence 10
d_convergence 10
ensure_bt_convergence true
dft_spherical_points 590
dft_radial_points 99
}

e = energy('b3lyp')

print_out('Grab this energy {0}'.format(e))
--------------------------------------------------------------------------

    Molecular point group: c1

    Geometry (in Bohr), charge = 0, multiplicity = 1:

       Center              X                  Y                   Z               Mass
    ------------   -----------------  -----------------  -----------------  -----------------
         N            4.436627946232    -0.003393441498     0.005855534289    14.003074004430
         C            2.239453660732     0.002475237902    -0.004265018911    12.000000000000
         C           -0.579796345868     0.003089111002    -0.005345534011    12.000000000000
         F           -1.445197870168     1.184130758502    -2.050974958511    18.998403162730
         F           -1.436584641168    -2.358176554098     0.006992467089    18.998403162730
         F           -1.436597119668     1.173032364402     2.045736910189    18.998403162730

  Charge       = 0
  Multiplicity = 1
  Basis Set: ANONYMOUSC37C0A7C
    Blend: 6-31G_2DFP_
  Basis Set: (ANONYMOUSC37C0A7C AUX)
    Blend: DEF2-UNIVERSAL-JKFIT

    Orbital Energies [Eh]
    ---------------------

    Doubly Occupied:

       1A    -24.765254     2A    -24.764841     3A    -24.764824
       4A    -14.390254     5A    -10.498126     6A    -10.265849
       7A     -1.356540     8A     -1.265664     9A     -1.265125
      10A     -0.945160    11A     -0.784101    12A     -0.669242
      13A     -0.633397    14A     -0.632912    15A     -0.502728
      16A     -0.502114    17A     -0.469147    18A     -0.468548
      19A     -0.464341    20A     -0.443060    21A     -0.400404
      22A     -0.380305    23A     -0.380266

  @DF-RKS Final Energy:  -430.45969732263768

   => Energetics <=

    Nuclear Repulsion Energy =            231.0276810095662086
    One-Electron Energy =               -1052.4680876616180285
    Two-Electron Energy =                 430.6660124014134112
    DFT Exchange-Correlation Energy =     -39.6853030719992432
    Empirical Dispersion Energy =           0.0000000000000000
    VV10 Nonlocal Energy =                  0.0000000000000000
    Total Energy =                       -430.4596973226376804

  Dipole Moment: [D]
     X:    -1.5175      Y:     0.0077      Z:    -0.0132     Total:     1.5176

*** Psi4 exiting successfully. Buy a developer a beer!
