                               Psi4 1.4a2.dev629

  ==> Input File <==

--------------------------------------------------------------------------
import os
memory 14 GB

molecule {
 N    4.4419213373    0.0041413628   -0.0071708262
 X    2.2380672400    1.0000000000    0.0000000000
 C    2.2463484372    0.0003520399   -0.0006118571
 X    2.2380672400   -0.0000000000    1.0000000000
 C   -0.5721839112   -0.0001683950    0.0002912473
 F   -1.4318526021    1.1782150221   -2.0407281898
 F   -1.4534605472   -2.3490186962    0.0092731335
 F   -1.4534593340    1.1664786664    2.0389464924
units bohr
}

basis {

assign 6-31g_2dfp_

[ 6-31g_2dfp_ ]
spherical

!----------------------------------------------------------------------
! Basis Set Exchange
! Version v0.8.13
! https://www.basissetexchange.org
!----------------------------------------------------------------------
!   Basis set: 6-31G(2df,p)
! Description: 6-31G(2df,p)
!        Role: orbital
!     Version: 0  (Data from the original Basis Set Exchange)
!----------------------------------------------------------------------

****
F     0
S    6   1.00
   7001.7130900              0.0018196169
   1051.3660900              0.0139160796
    239.2856900              0.0684053245
     67.3974453              0.233185760
     21.5199573              0.471267439
      7.40310130             0.356618546
SP   3   1.00
     20.8479528             -0.108506975            0.0716287243
      4.80830834            -0.146451658            0.3459121030
      1.34406986             1.128688580            0.7224699570
SP   1   1.00
      0.358151393            1.0000000              1.0000000
D    1   1.00
      3.5000000              1.0000000
D    1   1.00
      0.8750000              1.0000000
F    1   1.00
      1.8500000              1.0000000
****
C     0
S    6   1.00
   3047.5249000              0.0018347
    457.3695100              0.0140373
    103.9486900              0.0688426
     29.2101550              0.2321844
      9.2866630              0.4679413
      3.1639270              0.3623120
SP   3   1.00
      7.8682724             -0.1193324              0.0689991
      1.8812885             -0.1608542              0.3164240
      0.5442493              1.1434564              0.7443083
SP   1   1.00
      0.1687144              1.0000000              1.0000000
D    1   1.00
      1.2520000              1.0000000
D    1   1.00
      0.3130000              1.0000000
F    1   1.00
      0.8000000              1.0000000
****
N     0
S    6   1.00
   4173.5110000              0.0018348
    627.4579000              0.0139950
    142.9021000              0.0685870
     40.2343300              0.2322410
     12.8202100              0.4690700
      4.3904370              0.3604550
SP   3   1.00
     11.6263580             -0.1149610              0.0675800
      2.7162800             -0.1691180              0.3239070
      0.7722180              1.1458520              0.7408950
SP   1   1.00
      0.2120313              1.0000000              1.0000000
D    1   1.00
      1.8260000              1.0000000
D    1   1.00
      0.4565000              1.0000000
F    1   1.00
      1.0000000              1.0000000
****
}

set {
opt_type min
reference rhf
freeze_core true
e_convergence 10
d_convergence 10
ensure_bt_convergence true
dft_spherical_points 590
dft_radial_points 99
}

e = energy('b3lyp')

print_out('Grab this energy {0}'.format(e))
--------------------------------------------------------------------------

    Molecular point group: c1

    Geometry (in Bohr), charge = 0, multiplicity = 1:

       Center              X                  Y                   Z               Mass
    ------------   -----------------  -----------------  -----------------  -----------------
         N            4.443386851664     0.004372658468    -0.007571511290    14.003074004430
         C            2.247813951564     0.000583335568    -0.001012542190    12.000000000000
         C           -0.570718396836     0.000062900668    -0.000109437790    12.000000000000
         F           -1.430387087736     1.178446317768    -2.041128874890    18.998403162730
         F           -1.451995032836    -2.348787400532     0.008872448410    18.998403162730
         F           -1.451993819636     1.166709962068     2.038545807310    18.998403162730

  Charge       = 0
  Multiplicity = 1
  Basis Set: ANONYMOUSF54568CC
    Blend: 6-31G_2DFP_
  Basis Set: (ANONYMOUSF54568CC AUX)
    Blend: DEF2-UNIVERSAL-JKFIT

    Orbital Energies [Eh]
    ---------------------

    Doubly Occupied:

       1A    -24.764588     2A    -24.763886     3A    -24.763871
       4A    -14.390774     5A    -10.497361     6A    -10.266339
       7A     -1.357997     8A     -1.265880     9A     -1.264481
      10A     -0.946111    11A     -0.784100    12A     -0.670012
      13A     -0.633553    14A     -0.632823    15A     -0.502904
      16A     -0.502010    17A     -0.468226    18A     -0.467226
      19A     -0.465220    20A     -0.441959    21A     -0.401010
      22A     -0.381192    23A     -0.381041

  @DF-RKS Final Energy:  -430.45963502457880

   => Energetics <=

    Nuclear Repulsion Energy =            231.3294755986752875
    One-Electron Energy =               -1053.0676894150121825
    Two-Electron Energy =                 430.9685293872283864
    DFT Exchange-Correlation Energy =     -39.6899505954703358
    Empirical Dispersion Energy =           0.0000000000000000
    VV10 Nonlocal Energy =                  0.0000000000000000
    Total Energy =                       -430.4596350245788017

  Dipole Moment: [D]
     X:    -1.4798      Y:     0.0011      Z:    -0.0019     Total:     1.4798

*** Psi4 exiting successfully. Buy a developer a beer!
