                               Psi4 1.4a2.dev629

  ==> Input File <==

--------------------------------------------------------------------------
import os
memory 14 GB

molecule {
 N    4.4312048669   -0.0025441345   -0.0009465570
 X    2.2380672400    1.0000000000   -0.0000000000
 C    2.2380650593    0.0064675321    0.0020063179
 X    2.2380672400    0.0000000000    1.0000000000
 C   -0.5761516655   -0.0019541431    0.0043358328
 F   -1.4389510429    1.1803515290   -2.0416606623
 F   -1.4406274562   -2.3589438855    0.0003540772
 F   -1.4362263817    1.1766231019    2.0359109915
units bohr
}

basis {

assign 6-31g_2dfp_

[ 6-31g_2dfp_ ]
spherical

!----------------------------------------------------------------------
! Basis Set Exchange
! Version v0.8.13
! https://www.basissetexchange.org
!----------------------------------------------------------------------
!   Basis set: 6-31G(2df,p)
! Description: 6-31G(2df,p)
!        Role: orbital
!     Version: 0  (Data from the original Basis Set Exchange)
!----------------------------------------------------------------------

****
F     0
S    6   1.00
   7001.7130900              0.0018196169
   1051.3660900              0.0139160796
    239.2856900              0.0684053245
     67.3974453              0.233185760
     21.5199573              0.471267439
      7.40310130             0.356618546
SP   3   1.00
     20.8479528             -0.108506975            0.0716287243
      4.80830834            -0.146451658            0.3459121030
      1.34406986             1.128688580            0.7224699570
SP   1   1.00
      0.358151393            1.0000000              1.0000000
D    1   1.00
      3.5000000              1.0000000
D    1   1.00
      0.8750000              1.0000000
F    1   1.00
      1.8500000              1.0000000
****
C     0
S    6   1.00
   3047.5249000              0.0018347
    457.3695100              0.0140373
    103.9486900              0.0688426
     29.2101550              0.2321844
      9.2866630              0.4679413
      3.1639270              0.3623120
SP   3   1.00
      7.8682724             -0.1193324              0.0689991
      1.8812885             -0.1608542              0.3164240
      0.5442493              1.1434564              0.7443083
SP   1   1.00
      0.1687144              1.0000000              1.0000000
D    1   1.00
      1.2520000              1.0000000
D    1   1.00
      0.3130000              1.0000000
F    1   1.00
      0.8000000              1.0000000
****
N     0
S    6   1.00
   4173.5110000              0.0018348
    627.4579000              0.0139950
    142.9021000              0.0685870
     40.2343300              0.2322410
     12.8202100              0.4690700
      4.3904370              0.3604550
SP   3   1.00
     11.6263580             -0.1149610              0.0675800
      2.7162800             -0.1691180              0.3239070
      0.7722180              1.1458520              0.7408950
SP   1   1.00
      0.2120313              1.0000000              1.0000000
D    1   1.00
      1.8260000              1.0000000
D    1   1.00
      0.4565000              1.0000000
F    1   1.00
      1.0000000              1.0000000
****
}

set {
opt_type min
reference rhf
freeze_core true
e_convergence 10
d_convergence 10
ensure_bt_convergence true
dft_spherical_points 590
dft_radial_points 99
}

e = energy('b3lyp')

print_out('Grab this energy {0}'.format(e))
--------------------------------------------------------------------------

    Molecular point group: c1

    Geometry (in Bohr), charge = 0, multiplicity = 1:

       Center              X                  Y                   Z               Mass
    ------------   -----------------  -----------------  -----------------  -----------------
         N            4.431204347854    -0.002345417978    -0.000529111964    14.003074004430
         C            2.238064540254     0.006666248622     0.002423762936    12.000000000000
         C           -0.576152184546    -0.001755426578     0.004753277836    12.000000000000
         F           -1.438951561946     1.180550245522    -2.041243217264    18.998403162730
         F           -1.440627975246    -2.358745168978     0.000771522236    18.998403162730
         F           -1.436226900746     1.176821818422     2.036328436536    18.998403162730

  Charge       = 0
  Multiplicity = 1
  Basis Set: ANONYMOUSA14D8792
    Blend: 6-31G_2DFP_
  Basis Set: (ANONYMOUSA14D8792 AUX)
    Blend: DEF2-UNIVERSAL-JKFIT

    Orbital Energies [Eh]
    ---------------------

    Doubly Occupied:

       1A    -24.765841     2A    -24.764768     3A    -24.763340
       4A    -14.389810     5A    -10.497341     6A    -10.265177
       7A     -1.357920     8A     -1.267102     9A     -1.264463
      10A     -0.946070    11A     -0.784497    12A     -0.670044
      13A     -0.634053    14A     -0.633214    15A     -0.502776
      16A     -0.502656    17A     -0.469208    18A     -0.468190
      19A     -0.464407    20A     -0.442733    21A     -0.400406
      22A     -0.380876    23A     -0.380796

  @DF-RKS Final Energy:  -430.45975723300722

   => Energetics <=

    Nuclear Repulsion Energy =            231.4159340556854829
    One-Electron Energy =               -1053.2336090991784658
    Two-Electron Energy =                 431.0493088190792719
    DFT Exchange-Correlation Energy =     -39.6913910085935271
    Empirical Dispersion Energy =           0.0000000000000000
    VV10 Nonlocal Energy =                  0.0000000000000000
    Total Energy =                       -430.4597572330072239

  Dipole Moment: [D]
     X:    -1.5102      Y:     0.0018      Z:     0.0315     Total:     1.5105

*** Psi4 exiting successfully. Buy a developer a beer!
