                               Psi4 1.4a2.dev629

  ==> Input File <==

--------------------------------------------------------------------------
import os
memory 14 GB

molecule {
 N    4.4419340483    0.0002301422   -0.0004033216
 X    2.2380672400    1.0000000000    0.0000000000
 C    2.2463489478   -0.0007412369    0.0012883072
 X    2.2380672400   -0.0000000000    1.0000000000
 C   -0.5721767528    0.0023620843   -0.0040903589
 F   -1.4458866719    1.1747221394   -2.0346786477
 F   -1.4464518106   -2.3525536684    0.0003419203
 F   -1.4464543807    1.1759805392    2.0375421007
units bohr
}

basis {

assign 6-31g_2dfp_

[ 6-31g_2dfp_ ]
spherical

!----------------------------------------------------------------------
! Basis Set Exchange
! Version v0.8.13
! https://www.basissetexchange.org
!----------------------------------------------------------------------
!   Basis set: 6-31G(2df,p)
! Description: 6-31G(2df,p)
!        Role: orbital
!     Version: 0  (Data from the original Basis Set Exchange)
!----------------------------------------------------------------------

****
F     0
S    6   1.00
   7001.7130900              0.0018196169
   1051.3660900              0.0139160796
    239.2856900              0.0684053245
     67.3974453              0.233185760
     21.5199573              0.471267439
      7.40310130             0.356618546
SP   3   1.00
     20.8479528             -0.108506975            0.0716287243
      4.80830834            -0.146451658            0.3459121030
      1.34406986             1.128688580            0.7224699570
SP   1   1.00
      0.358151393            1.0000000              1.0000000
D    1   1.00
      3.5000000              1.0000000
D    1   1.00
      0.8750000              1.0000000
F    1   1.00
      1.8500000              1.0000000
****
C     0
S    6   1.00
   3047.5249000              0.0018347
    457.3695100              0.0140373
    103.9486900              0.0688426
     29.2101550              0.2321844
      9.2866630              0.4679413
      3.1639270              0.3623120
SP   3   1.00
      7.8682724             -0.1193324              0.0689991
      1.8812885             -0.1608542              0.3164240
      0.5442493              1.1434564              0.7443083
SP   1   1.00
      0.1687144              1.0000000              1.0000000
D    1   1.00
      1.2520000              1.0000000
D    1   1.00
      0.3130000              1.0000000
F    1   1.00
      0.8000000              1.0000000
****
N     0
S    6   1.00
   4173.5110000              0.0018348
    627.4579000              0.0139950
    142.9021000              0.0685870
     40.2343300              0.2322410
     12.8202100              0.4690700
      4.3904370              0.3604550
SP   3   1.00
     11.6263580             -0.1149610              0.0675800
      2.7162800             -0.1691180              0.3239070
      0.7722180              1.1458520              0.7408950
SP   1   1.00
      0.2120313              1.0000000              1.0000000
D    1   1.00
      1.8260000              1.0000000
D    1   1.00
      0.4565000              1.0000000
F    1   1.00
      1.0000000              1.0000000
****
}

set {
opt_type min
reference rhf
freeze_core true
e_convergence 10
d_convergence 10
ensure_bt_convergence true
dft_spherical_points 590
dft_radial_points 99
}

e = energy('b3lyp')

print_out('Grab this energy {0}'.format(e))
--------------------------------------------------------------------------

    Molecular point group: c1

    Geometry (in Bohr), charge = 0, multiplicity = 1:

       Center              X                  Y                   Z               Mass
    ------------   -----------------  -----------------  -----------------  -----------------
         N            4.443400795997     0.000361649665    -0.000630953204    14.003074004430
         C            2.247815695497    -0.000609729435     0.001060675596    12.000000000000
         C           -0.570710005103     0.002493591765    -0.004317990504    12.000000000000
         F           -1.444419924203     1.174853646865    -2.034906279304    18.998403162730
         F           -1.444985062903    -2.352422160935     0.000114288696    18.998403162730
         F           -1.444987633003     1.176112046665     2.037314469096    18.998403162730

  Charge       = 0
  Multiplicity = 1
  Basis Set: ANONYMOUS7A39050E
    Blend: 6-31G_2DFP_
  Basis Set: (ANONYMOUS7A39050E AUX)
    Blend: DEF2-UNIVERSAL-JKFIT

    Orbital Energies [Eh]
    ---------------------

    Doubly Occupied:

       1A    -24.765428     2A    -24.763469     3A    -24.763453
       4A    -14.390776     5A    -10.497359     6A    -10.266340
       7A     -1.358030     8A     -1.266296     9A     -1.264040
      10A     -0.946112    11A     -0.784101    12A     -0.670029
      13A     -0.633571    14A     -0.632815    15A     -0.502472
      16A     -0.502457    17A     -0.468227    18A     -0.467251
      19A     -0.465168    20A     -0.441963    21A     -0.401012
      22A     -0.381155    23A     -0.381081

  @DF-RKS Final Energy:  -430.45964877457641

   => Energetics <=

    Nuclear Repulsion Energy =            231.3290774147102979
    One-Electron Energy =               -1053.0668392760037477
    Two-Electron Energy =                 430.9680665546672458
    DFT Exchange-Correlation Energy =     -39.6899534679502537
    Empirical Dispersion Energy =           0.0000000000000000
    VV10 Nonlocal Energy =                  0.0000000000000000
    Total Energy =                       -430.4596487745764080

  Dipole Moment: [D]
     X:    -1.4798      Y:     0.0132      Z:    -0.0228     Total:     1.4800

*** Psi4 exiting successfully. Buy a developer a beer!
