                               Psi4 1.4a2.dev629

  ==> Input File <==

--------------------------------------------------------------------------
import os
memory 14 GB

molecule {
 N    4.4347251511   -0.0000000000    0.0000000000
 X    2.2380672400    1.0000000000   -0.0000000000
 C    2.2434221213    0.0000000000   -0.0000000000
 X    2.2380672400    0.0000000000    1.0000000000
 C   -0.5830974447   -0.0000000000    0.0000000000
 F   -1.4392454826    1.1805743279   -2.0448147240
 F   -1.4392454826   -2.3611486558   -0.0000000000
 F   -1.4392454826    1.1805743279    2.0448147240
units bohr
}

basis {

assign 6-31g_2dfp_

[ 6-31g_2dfp_ ]
spherical

!----------------------------------------------------------------------
! Basis Set Exchange
! Version v0.8.13
! https://www.basissetexchange.org
!----------------------------------------------------------------------
!   Basis set: 6-31G(2df,p)
! Description: 6-31G(2df,p)
!        Role: orbital
!     Version: 0  (Data from the original Basis Set Exchange)
!----------------------------------------------------------------------

****
F     0
S    6   1.00
   7001.7130900              0.0018196169
   1051.3660900              0.0139160796
    239.2856900              0.0684053245
     67.3974453              0.233185760
     21.5199573              0.471267439
      7.40310130             0.356618546
SP   3   1.00
     20.8479528             -0.108506975            0.0716287243
      4.80830834            -0.146451658            0.3459121030
      1.34406986             1.128688580            0.7224699570
SP   1   1.00
      0.358151393            1.0000000              1.0000000
D    1   1.00
      3.5000000              1.0000000
D    1   1.00
      0.8750000              1.0000000
F    1   1.00
      1.8500000              1.0000000
****
C     0
S    6   1.00
   3047.5249000              0.0018347
    457.3695100              0.0140373
    103.9486900              0.0688426
     29.2101550              0.2321844
      9.2866630              0.4679413
      3.1639270              0.3623120
SP   3   1.00
      7.8682724             -0.1193324              0.0689991
      1.8812885             -0.1608542              0.3164240
      0.5442493              1.1434564              0.7443083
SP   1   1.00
      0.1687144              1.0000000              1.0000000
D    1   1.00
      1.2520000              1.0000000
D    1   1.00
      0.3130000              1.0000000
F    1   1.00
      0.8000000              1.0000000
****
N     0
S    6   1.00
   4173.5110000              0.0018348
    627.4579000              0.0139950
    142.9021000              0.0685870
     40.2343300              0.2322410
     12.8202100              0.4690700
      4.3904370              0.3604550
SP   3   1.00
     11.6263580             -0.1149610              0.0675800
      2.7162800             -0.1691180              0.3239070
      0.7722180              1.1458520              0.7408950
SP   1   1.00
      0.2120313              1.0000000              1.0000000
D    1   1.00
      1.8260000              1.0000000
D    1   1.00
      0.4565000              1.0000000
F    1   1.00
      1.0000000              1.0000000
****
}

set {
opt_type min
reference rhf
freeze_core true
e_convergence 10
d_convergence 10
ensure_bt_convergence true
dft_spherical_points 590
dft_radial_points 99
}

e = energy('b3lyp')

print_out('Grab this energy {0}'.format(e))
--------------------------------------------------------------------------

    Molecular point group: cs

    Geometry (in Bohr), charge = 0, multiplicity = 1:

       Center              X                  Y                   Z               Mass
    ------------   -----------------  -----------------  -----------------  -----------------
         N            4.434792701651     0.000000000000     0.000000000000    14.003074004430
         C            2.243489671851     0.000000000000     0.000000000000    12.000000000000
         C           -0.583029894149     0.000000000000     0.000000000000    12.000000000000
         F           -1.439177932049     1.180574327900    -2.044814724000    18.998403162730
         F           -1.439177932049    -2.361148655800     0.000000000000    18.998403162730
         F           -1.439177932049     1.180574327900     2.044814724000    18.998403162730

  Charge       = 0
  Multiplicity = 1
  Basis Set: ANONYMOUSBAEC4D96
    Blend: 6-31G_2DFP_
  Basis Set: (ANONYMOUSBAEC4D96 AUX)
    Blend: DEF2-UNIVERSAL-JKFIT

    Orbital Energies [Eh]
    ---------------------

    Doubly Occupied:

       1Ap   -24.765272     1App  -24.765247     2Ap   -24.765247
       3Ap   -14.388916     4Ap   -10.498427     5Ap   -10.264795
       6Ap    -1.357134     2App   -1.265951     7Ap    -1.265951
       8Ap    -0.945759     9Ap    -0.783259    10Ap    -0.669216
      11Ap    -0.633565     3App   -0.633565    12Ap    -0.502738
       4App   -0.502738     5App   -0.469243    13Ap    -0.469243
      14Ap    -0.464040     6App   -0.443387    15Ap    -0.399717
      16Ap    -0.380566     7App   -0.380566

  @DF-RKS Final Energy:  -430.45979365500466

   => Energetics <=

    Nuclear Repulsion Energy =            231.0795220794608156
    One-Electron Energy =               -1052.5656325154827755
    Two-Electron Energy =                 430.7140235632302847
    DFT Exchange-Correlation Energy =     -39.6877067822130059
    Empirical Dispersion Energy =           0.0000000000000000
    VV10 Nonlocal Energy =                  0.0000000000000000
    Total Energy =                       -430.4597936550046597

  Dipole Moment: [D]
     X:    -1.5397      Y:     0.0000      Z:     0.0000     Total:     1.5397

*** Psi4 exiting successfully. Buy a developer a beer!
