                               Psi4 1.4a2.dev629

  ==> Input File <==

--------------------------------------------------------------------------
import os
memory 14 GB

molecule {
 N    4.4293737154    0.0088557967    0.0051151283
 X    2.2380672400    1.0000000000    0.0000000000
 C    2.2421440676   -0.0007742751   -0.0004424915
 X    2.2380672400   -0.0000000000    1.0000000000
 C   -0.5793546323   -0.0027013673   -0.0015501856
 F   -1.4382925505    1.1728253261   -2.0431374622
 F   -1.4515262368   -2.3543052474   -0.0029313165
 F   -1.4250309833    1.1760997671    2.0429463274
units bohr
}

basis {

assign 6-31g_2dfp_

[ 6-31g_2dfp_ ]
spherical

!----------------------------------------------------------------------
! Basis Set Exchange
! Version v0.8.13
! https://www.basissetexchange.org
!----------------------------------------------------------------------
!   Basis set: 6-31G(2df,p)
! Description: 6-31G(2df,p)
!        Role: orbital
!     Version: 0  (Data from the original Basis Set Exchange)
!----------------------------------------------------------------------

****
F     0
S    6   1.00
   7001.7130900              0.0018196169
   1051.3660900              0.0139160796
    239.2856900              0.0684053245
     67.3974453              0.233185760
     21.5199573              0.471267439
      7.40310130             0.356618546
SP   3   1.00
     20.8479528             -0.108506975            0.0716287243
      4.80830834            -0.146451658            0.3459121030
      1.34406986             1.128688580            0.7224699570
SP   1   1.00
      0.358151393            1.0000000              1.0000000
D    1   1.00
      3.5000000              1.0000000
D    1   1.00
      0.8750000              1.0000000
F    1   1.00
      1.8500000              1.0000000
****
C     0
S    6   1.00
   3047.5249000              0.0018347
    457.3695100              0.0140373
    103.9486900              0.0688426
     29.2101550              0.2321844
      9.2866630              0.4679413
      3.1639270              0.3623120
SP   3   1.00
      7.8682724             -0.1193324              0.0689991
      1.8812885             -0.1608542              0.3164240
      0.5442493              1.1434564              0.7443083
SP   1   1.00
      0.1687144              1.0000000              1.0000000
D    1   1.00
      1.2520000              1.0000000
D    1   1.00
      0.3130000              1.0000000
F    1   1.00
      0.8000000              1.0000000
****
N     0
S    6   1.00
   4173.5110000              0.0018348
    627.4579000              0.0139950
    142.9021000              0.0685870
     40.2343300              0.2322410
     12.8202100              0.4690700
      4.3904370              0.3604550
SP   3   1.00
     11.6263580             -0.1149610              0.0675800
      2.7162800             -0.1691180              0.3239070
      0.7722180              1.1458520              0.7408950
SP   1   1.00
      0.2120313              1.0000000              1.0000000
D    1   1.00
      1.8260000              1.0000000
D    1   1.00
      0.4565000              1.0000000
F    1   1.00
      1.0000000              1.0000000
****
}

set {
opt_type min
reference rhf
freeze_core true
e_convergence 10
d_convergence 10
ensure_bt_convergence true
dft_spherical_points 590
dft_radial_points 99
}

e = energy('b3lyp')

print_out('Grab this energy {0}'.format(e))
--------------------------------------------------------------------------

    Molecular point group: c1

    Geometry (in Bohr), charge = 0, multiplicity = 1:

       Center              X                  Y                   Z               Mass
    ------------   -----------------  -----------------  -----------------  -----------------
         N            4.429341445078     0.009065418075     0.005237300968    14.003074004430
         C            2.242111797278    -0.000564653725    -0.000320318832    12.000000000000
         C           -0.579386902622    -0.002491745925    -0.001428012932    12.000000000000
         F           -1.438324820822     1.173034947475    -2.043015289532    18.998403162730
         F           -1.451558507122    -2.354095626025    -0.002809143832    18.998403162730
         F           -1.425063253622     1.176309388475     2.043068500068    18.998403162730

  Charge       = 0
  Multiplicity = 1
  Basis Set: ANONYMOUS14CA3E77
    Blend: 6-31G_2DFP_
  Basis Set: (ANONYMOUS14CA3E77 AUX)
    Blend: DEF2-UNIVERSAL-JKFIT

    Orbital Energies [Eh]
    ---------------------

    Doubly Occupied:

       1A    -24.765101     2A    -24.764927     3A    -24.764760
       4A    -14.388465     5A    -10.497645     6A    -10.264124
       7A     -1.358466     8A     -1.266776     9A     -1.265939
      10A     -0.946666    11A     -0.783645    12A     -0.670003
      13A     -0.634226    14A     -0.633846    15A     -0.503285
      16A     -0.502760    17A     -0.469364    18A     -0.468806
      19A     -0.464156    20A     -0.443065    21A     -0.399715
      22A     -0.381198    23A     -0.381038

  @DF-RKS Final Energy:  -430.45982040194377

   => Energetics <=

    Nuclear Repulsion Energy =            231.4685626171965680
    One-Electron Energy =               -1053.3327684100588613
    Two-Electron Energy =                 431.0981833337169178
    DFT Exchange-Correlation Energy =     -39.6937979427983549
    Empirical Dispersion Energy =           0.0000000000000000
    VV10 Nonlocal Energy =                  0.0000000000000000
    Total Energy =                       -430.4598204019437730

  Dipole Moment: [D]
     X:    -1.5324      Y:    -0.0055      Z:    -0.0031     Total:     1.5324

*** Psi4 exiting successfully. Buy a developer a beer!
