                               Psi4 1.4a2.dev629

  ==> Input File <==

--------------------------------------------------------------------------
import os
memory 14 GB

molecule {
 N    4.4365333205    0.0023468694    0.0013621421
 X    2.2380672400    1.0000000000    0.0000000000
 C    2.2393478116   -0.0057507242   -0.0033257846
 X    2.2380672400   -0.0000000000    1.0000000000
 C   -0.5798957312   -0.0004151964   -0.0002398966
 F   -1.4395625762    1.1795819856   -2.0458642081
 F   -1.4373714072   -2.3578197030   -0.0006943036
 F   -1.4417380375    1.1820567686    2.0487620508
units bohr
}

basis {

assign 6-31g_2dfp_

[ 6-31g_2dfp_ ]
spherical

!----------------------------------------------------------------------
! Basis Set Exchange
! Version v0.8.13
! https://www.basissetexchange.org
!----------------------------------------------------------------------
!   Basis set: 6-31G(2df,p)
! Description: 6-31G(2df,p)
!        Role: orbital
!     Version: 0  (Data from the original Basis Set Exchange)
!----------------------------------------------------------------------

****
F     0
S    6   1.00
   7001.7130900              0.0018196169
   1051.3660900              0.0139160796
    239.2856900              0.0684053245
     67.3974453              0.233185760
     21.5199573              0.471267439
      7.40310130             0.356618546
SP   3   1.00
     20.8479528             -0.108506975            0.0716287243
      4.80830834            -0.146451658            0.3459121030
      1.34406986             1.128688580            0.7224699570
SP   1   1.00
      0.358151393            1.0000000              1.0000000
D    1   1.00
      3.5000000              1.0000000
D    1   1.00
      0.8750000              1.0000000
F    1   1.00
      1.8500000              1.0000000
****
C     0
S    6   1.00
   3047.5249000              0.0018347
    457.3695100              0.0140373
    103.9486900              0.0688426
     29.2101550              0.2321844
      9.2866630              0.4679413
      3.1639270              0.3623120
SP   3   1.00
      7.8682724             -0.1193324              0.0689991
      1.8812885             -0.1608542              0.3164240
      0.5442493              1.1434564              0.7443083
SP   1   1.00
      0.1687144              1.0000000              1.0000000
D    1   1.00
      1.2520000              1.0000000
D    1   1.00
      0.3130000              1.0000000
F    1   1.00
      0.8000000              1.0000000
****
N     0
S    6   1.00
   4173.5110000              0.0018348
    627.4579000              0.0139950
    142.9021000              0.0685870
     40.2343300              0.2322410
     12.8202100              0.4690700
      4.3904370              0.3604550
SP   3   1.00
     11.6263580             -0.1149610              0.0675800
      2.7162800             -0.1691180              0.3239070
      0.7722180              1.1458520              0.7408950
SP   1   1.00
      0.2120313              1.0000000              1.0000000
D    1   1.00
      1.8260000              1.0000000
D    1   1.00
      0.4565000              1.0000000
F    1   1.00
      1.0000000              1.0000000
****
}

set {
opt_type min
reference rhf
freeze_core true
e_convergence 10
d_convergence 10
ensure_bt_convergence true
dft_spherical_points 590
dft_radial_points 99
}

e = energy('b3lyp')

print_out('Grab this energy {0}'.format(e))
--------------------------------------------------------------------------

    Molecular point group: c1

    Geometry (in Bohr), charge = 0, multiplicity = 1:

       Center              X                  Y                   Z               Mass
    ------------   -----------------  -----------------  -----------------  -----------------
         N            4.436631667601     0.002016040127     0.001171088896    14.003074004430
         C            2.239446158701    -0.006081553473    -0.003516837804    12.000000000000
         C           -0.579797384099    -0.000746025673    -0.000430949804    12.000000000000
         F           -1.439464229099     1.179251156327    -2.046055261304    18.998403162730
         F           -1.437273060099    -2.358150532273    -0.000885356804    18.998403162730
         F           -1.441639690399     1.181725939327     2.048570997596    18.998403162730

  Charge       = 0
  Multiplicity = 1
  Basis Set: ANONYMOUS18FB362B
    Blend: 6-31G_2DFP_
  Basis Set: (ANONYMOUS18FB362B AUX)
    Blend: DEF2-UNIVERSAL-JKFIT

    Orbital Energies [Eh]
    ---------------------

    Doubly Occupied:

       1A    -24.765511     2A    -24.764975     3A    -24.764440
       4A    -14.390254     5A    -10.498125     6A    -10.265846
       7A     -1.356555     8A     -1.266061     9A     -1.264723
      10A     -0.945160    11A     -0.784102    12A     -0.669248
      13A     -0.633325    14A     -0.632994    15A     -0.502482
      16A     -0.502365    17A     -0.469062    18A     -0.468632
      19A     -0.464332    20A     -0.443070    21A     -0.400404
      22A     -0.380297    23A     -0.380273

  @DF-RKS Final Energy:  -430.45970453049193

   => Energetics <=

    Nuclear Repulsion Energy =            231.0270740083413443
    One-Electron Energy =               -1052.4668191233504331
    Two-Electron Energy =                 430.6653436220361186
    DFT Exchange-Correlation Energy =     -39.6853030375189206
    Empirical Dispersion Energy =           0.0000000000000000
    VV10 Nonlocal Energy =                  0.0000000000000000
    Total Energy =                       -430.4597045304919334

  Dipole Moment: [D]
     X:    -1.5175      Y:    -0.0150      Z:    -0.0086     Total:     1.5176

*** Psi4 exiting successfully. Buy a developer a beer!
