                               Psi4 1.4a2.dev629

  ==> Input File <==

--------------------------------------------------------------------------
import os
memory 14 GB

molecule {
 N    4.4293790027    0.0037112536    0.0021458319
 X    2.2380672400    1.0000000000   -0.0000000000
 C    2.2421432433   -0.0048086640   -0.0027838935
 X    2.2380672400   -0.0000000000    1.0000000000
 C   -0.5793540953   -0.0017328273   -0.0010055218
 F   -1.4382815098    1.1839972797   -2.0366881522
 F   -1.4390234126   -2.3600233767    0.0035159872
 F   -1.4375498482    1.1788563346    2.0348157484
units bohr
}

basis {

assign 6-31g_2dfp_

[ 6-31g_2dfp_ ]
spherical

!----------------------------------------------------------------------
! Basis Set Exchange
! Version v0.8.13
! https://www.basissetexchange.org
!----------------------------------------------------------------------
!   Basis set: 6-31G(2df,p)
! Description: 6-31G(2df,p)
!        Role: orbital
!     Version: 0  (Data from the original Basis Set Exchange)
!----------------------------------------------------------------------

****
F     0
S    6   1.00
   7001.7130900              0.0018196169
   1051.3660900              0.0139160796
    239.2856900              0.0684053245
     67.3974453              0.233185760
     21.5199573              0.471267439
      7.40310130             0.356618546
SP   3   1.00
     20.8479528             -0.108506975            0.0716287243
      4.80830834            -0.146451658            0.3459121030
      1.34406986             1.128688580            0.7224699570
SP   1   1.00
      0.358151393            1.0000000              1.0000000
D    1   1.00
      3.5000000              1.0000000
D    1   1.00
      0.8750000              1.0000000
F    1   1.00
      1.8500000              1.0000000
****
C     0
S    6   1.00
   3047.5249000              0.0018347
    457.3695100              0.0140373
    103.9486900              0.0688426
     29.2101550              0.2321844
      9.2866630              0.4679413
      3.1639270              0.3623120
SP   3   1.00
      7.8682724             -0.1193324              0.0689991
      1.8812885             -0.1608542              0.3164240
      0.5442493              1.1434564              0.7443083
SP   1   1.00
      0.1687144              1.0000000              1.0000000
D    1   1.00
      1.2520000              1.0000000
D    1   1.00
      0.3130000              1.0000000
F    1   1.00
      0.8000000              1.0000000
****
N     0
S    6   1.00
   4173.5110000              0.0018348
    627.4579000              0.0139950
    142.9021000              0.0685870
     40.2343300              0.2322410
     12.8202100              0.4690700
      4.3904370              0.3604550
SP   3   1.00
     11.6263580             -0.1149610              0.0675800
      2.7162800             -0.1691180              0.3239070
      0.7722180              1.1458520              0.7408950
SP   1   1.00
      0.2120313              1.0000000              1.0000000
D    1   1.00
      1.8260000              1.0000000
D    1   1.00
      0.4565000              1.0000000
F    1   1.00
      1.0000000              1.0000000
****
}

set {
opt_type min
reference rhf
freeze_core true
e_convergence 10
d_convergence 10
ensure_bt_convergence true
dft_spherical_points 590
dft_radial_points 99
}

e = energy('b3lyp')

print_out('Grab this energy {0}'.format(e))
--------------------------------------------------------------------------

    Molecular point group: c1

    Geometry (in Bohr), charge = 0, multiplicity = 1:

       Center              X                  Y                   Z               Mass
    ------------   -----------------  -----------------  -----------------  -----------------
         N            4.429346989237     0.003424500438     0.001979505533    14.003074004430
         C            2.242111229837    -0.005095417162    -0.002950219867    12.000000000000
         C           -0.579386108763    -0.002019580462    -0.001171848167    12.000000000000
         F           -1.438313523263     1.183710526538    -2.036854478567    18.998403162730
         F           -1.439055426063    -2.360310129862     0.003349660833    18.998403162730
         F           -1.437581861663     1.178569581438     2.034649422033    18.998403162730

  Charge       = 0
  Multiplicity = 1
  Basis Set: ANONYMOUS1D0908B9
    Blend: 6-31G_2DFP_
  Basis Set: (ANONYMOUS1D0908B9 AUX)
    Blend: DEF2-UNIVERSAL-JKFIT

    Orbital Energies [Eh]
    ---------------------

    Doubly Occupied:

       1A    -24.765029     2A    -24.764926     3A    -24.764826
       4A    -14.388469     5A    -10.497643     6A    -10.264125
       7A     -1.358473     8A     -1.266354     9A     -1.266350
      10A     -0.946669    11A     -0.783644    12A     -0.670003
      13A     -0.634143    14A     -0.633926    15A     -0.503294
      16A     -0.502748    17A     -0.469232    18A     -0.468932
      19A     -0.464154    20A     -0.443064    21A     -0.399717
      22A     -0.381140    23A     -0.381102

  @DF-RKS Final Energy:  -430.45982118308302

   => Energetics <=

    Nuclear Repulsion Energy =            231.4684664432219279
    One-Electron Energy =               -1053.3325984526550201
    Two-Electron Energy =                 431.0981111358690328
    DFT Exchange-Correlation Energy =     -39.6938003095189700
    Empirical Dispersion Energy =           0.0000000000000000
    VV10 Nonlocal Energy =                  0.0000000000000000
    Total Energy =                       -430.4598211830830223

  Dipole Moment: [D]
     X:    -1.5323      Y:    -0.0037      Z:    -0.0021     Total:     1.5323

*** Psi4 exiting successfully. Buy a developer a beer!
