                               Psi4 1.4a2.dev629

  ==> Input File <==

--------------------------------------------------------------------------
import os
memory 14 GB

molecule {
 N    4.4419145566    0.0037302337    0.0021568112
 X    2.2380672400    1.0000000000   -0.0000000000
 C    2.2463508019   -0.0048180387   -0.0027893389
 X    2.2380672400   -0.0000000000    1.0000000000
 C   -0.5721794964   -0.0017397517   -0.0010095408
 F   -1.4462540765    1.1818410164   -2.0329562710
 F   -1.4470160632   -2.3557138504    0.0035152979
 F   -1.4455023424    1.1767003906    2.0310830416
units bohr
}

basis {

assign 6-31g_2dfp_

[ 6-31g_2dfp_ ]
spherical

!----------------------------------------------------------------------
! Basis Set Exchange
! Version v0.8.13
! https://www.basissetexchange.org
!----------------------------------------------------------------------
!   Basis set: 6-31G(2df,p)
! Description: 6-31G(2df,p)
!        Role: orbital
!     Version: 0  (Data from the original Basis Set Exchange)
!----------------------------------------------------------------------

****
F     0
S    6   1.00
   7001.7130900              0.0018196169
   1051.3660900              0.0139160796
    239.2856900              0.0684053245
     67.3974453              0.233185760
     21.5199573              0.471267439
      7.40310130             0.356618546
SP   3   1.00
     20.8479528             -0.108506975            0.0716287243
      4.80830834            -0.146451658            0.3459121030
      1.34406986             1.128688580            0.7224699570
SP   1   1.00
      0.358151393            1.0000000              1.0000000
D    1   1.00
      3.5000000              1.0000000
D    1   1.00
      0.8750000              1.0000000
F    1   1.00
      1.8500000              1.0000000
****
C     0
S    6   1.00
   3047.5249000              0.0018347
    457.3695100              0.0140373
    103.9486900              0.0688426
     29.2101550              0.2321844
      9.2866630              0.4679413
      3.1639270              0.3623120
SP   3   1.00
      7.8682724             -0.1193324              0.0689991
      1.8812885             -0.1608542              0.3164240
      0.5442493              1.1434564              0.7443083
SP   1   1.00
      0.1687144              1.0000000              1.0000000
D    1   1.00
      1.2520000              1.0000000
D    1   1.00
      0.3130000              1.0000000
F    1   1.00
      0.8000000              1.0000000
****
N     0
S    6   1.00
   4173.5110000              0.0018348
    627.4579000              0.0139950
    142.9021000              0.0685870
     40.2343300              0.2322410
     12.8202100              0.4690700
      4.3904370              0.3604550
SP   3   1.00
     11.6263580             -0.1149610              0.0675800
      2.7162800             -0.1691180              0.3239070
      0.7722180              1.1458520              0.7408950
SP   1   1.00
      0.2120313              1.0000000              1.0000000
D    1   1.00
      1.8260000              1.0000000
D    1   1.00
      0.4565000              1.0000000
F    1   1.00
      1.0000000              1.0000000
****
}

set {
opt_type min
reference rhf
freeze_core true
e_convergence 10
d_convergence 10
ensure_bt_convergence true
dft_spherical_points 590
dft_radial_points 99
}

e = energy('b3lyp')

print_out('Grab this energy {0}'.format(e))
--------------------------------------------------------------------------

    Molecular point group: c1

    Geometry (in Bohr), charge = 0, multiplicity = 1:

       Center              X                  Y                   Z               Mass
    ------------   -----------------  -----------------  -----------------  -----------------
         N            4.443380213849     0.003443277841     0.001990364931    14.003074004430
         C            2.247816459149    -0.005104994559    -0.002955785169    12.000000000000
         C           -0.570713839151    -0.002026707559    -0.001175987069    12.000000000000
         F           -1.444788419251     1.181554060541    -2.033122717269    18.998403162730
         F           -1.445550405951    -2.356000806259     0.003348851631    18.998403162730
         F           -1.444036685151     1.176413434741     2.030916595331    18.998403162730

  Charge       = 0
  Multiplicity = 1
  Basis Set: ANONYMOUSC4D5F0B6
    Blend: 6-31G_2DFP_
  Basis Set: (ANONYMOUSC4D5F0B6 AUX)
    Blend: DEF2-UNIVERSAL-JKFIT

    Orbital Energies [Eh]
    ---------------------

    Doubly Occupied:

       1A    -24.764215     2A    -24.764114     3A    -24.764016
       4A    -14.390777     5A    -10.497359     6A    -10.266340
       7A     -1.358003     8A     -1.265182     9A     -1.265173
      10A     -0.946113    11A     -0.784099    12A     -0.670014
      13A     -0.633298    14A     -0.633079    15A     -0.502730
      16A     -0.502181    17A     -0.467875    18A     -0.467570
      19A     -0.465214    20A     -0.441977    21A     -0.401013
      22A     -0.381138    23A     -0.381101

  @DF-RKS Final Energy:  -430.45964789024185

   => Energetics <=

    Nuclear Repulsion Energy =            231.3291484290802487
    One-Electron Energy =               -1053.0670366793153789
    Two-Electron Energy =                 430.9681879574125105
    DFT Exchange-Correlation Energy =     -39.6899475974192626
    Empirical Dispersion Energy =           0.0000000000000000
    VV10 Nonlocal Energy =                  0.0000000000000000
    Total Energy =                       -430.4596478902418539

  Dipole Moment: [D]
     X:    -1.4798      Y:    -0.0037      Z:    -0.0021     Total:     1.4798

*** Psi4 exiting successfully. Buy a developer a beer!
