                               Psi4 1.4a2.dev629

  ==> Input File <==

--------------------------------------------------------------------------
import os
memory 14 GB

molecule {
 N    4.4312051191   -0.0036962608   -0.0021308534
 X    2.2380672400    1.0000000000    0.0000000000
 C    2.2380666987    0.0047944537    0.0027604455
 X    2.2380672400    0.0000000000    1.0000000000
 C   -0.5761613789    0.0017372514    0.0009979139
 F   -1.4385956464    1.1720295692   -2.0440724827
 F   -1.4378717276   -2.3520383663   -0.0035122669
 F   -1.4393296850    1.1771733529    2.0459572435
units bohr
}

basis {

assign 6-31g_2dfp_

[ 6-31g_2dfp_ ]
spherical

!----------------------------------------------------------------------
! Basis Set Exchange
! Version v0.8.13
! https://www.basissetexchange.org
!----------------------------------------------------------------------
!   Basis set: 6-31G(2df,p)
! Description: 6-31G(2df,p)
!        Role: orbital
!     Version: 0  (Data from the original Basis Set Exchange)
!----------------------------------------------------------------------

****
F     0
S    6   1.00
   7001.7130900              0.0018196169
   1051.3660900              0.0139160796
    239.2856900              0.0684053245
     67.3974453              0.233185760
     21.5199573              0.471267439
      7.40310130             0.356618546
SP   3   1.00
     20.8479528             -0.108506975            0.0716287243
      4.80830834            -0.146451658            0.3459121030
      1.34406986             1.128688580            0.7224699570
SP   1   1.00
      0.358151393            1.0000000              1.0000000
D    1   1.00
      3.5000000              1.0000000
D    1   1.00
      0.8750000              1.0000000
F    1   1.00
      1.8500000              1.0000000
****
C     0
S    6   1.00
   3047.5249000              0.0018347
    457.3695100              0.0140373
    103.9486900              0.0688426
     29.2101550              0.2321844
      9.2866630              0.4679413
      3.1639270              0.3623120
SP   3   1.00
      7.8682724             -0.1193324              0.0689991
      1.8812885             -0.1608542              0.3164240
      0.5442493              1.1434564              0.7443083
SP   1   1.00
      0.1687144              1.0000000              1.0000000
D    1   1.00
      1.2520000              1.0000000
D    1   1.00
      0.3130000              1.0000000
F    1   1.00
      0.8000000              1.0000000
****
N     0
S    6   1.00
   4173.5110000              0.0018348
    627.4579000              0.0139950
    142.9021000              0.0685870
     40.2343300              0.2322410
     12.8202100              0.4690700
      4.3904370              0.3604550
SP   3   1.00
     11.6263580             -0.1149610              0.0675800
      2.7162800             -0.1691180              0.3239070
      0.7722180              1.1458520              0.7408950
SP   1   1.00
      0.2120313              1.0000000              1.0000000
D    1   1.00
      1.8260000              1.0000000
D    1   1.00
      0.4565000              1.0000000
F    1   1.00
      1.0000000              1.0000000
****
}

set {
opt_type min
reference rhf
freeze_core true
e_convergence 10
d_convergence 10
ensure_bt_convergence true
dft_spherical_points 590
dft_radial_points 99
}

e = energy('b3lyp')

print_out('Grab this energy {0}'.format(e))
--------------------------------------------------------------------------

    Molecular point group: c1

    Geometry (in Bohr), charge = 0, multiplicity = 1:

       Center              X                  Y                   Z               Mass
    ------------   -----------------  -----------------  -----------------  -----------------
         N            4.431204018514    -0.003409440203    -0.001966027242    14.003074004430
         C            2.238065598114     0.005081274297     0.002925271658    12.000000000000
         C           -0.576162479486     0.002024071997     0.001162740058    12.000000000000
         F           -1.438596746986     1.172316389797    -2.043907656542    18.998403162730
         F           -1.437872828186    -2.351751545703    -0.003347440742    18.998403162730
         F           -1.439330785586     1.177460173497     2.046122069658    18.998403162730

  Charge       = 0
  Multiplicity = 1
  Basis Set: ANONYMOUSBA50D3FF
    Blend: 6-31G_2DFP_
  Basis Set: (ANONYMOUSBA50D3FF AUX)
    Blend: DEF2-UNIVERSAL-JKFIT

    Orbital Energies [Eh]
    ---------------------

    Doubly Occupied:

       1A    -24.764750     2A    -24.764648     3A    -24.764549
       4A    -14.389810     5A    -10.497343     6A    -10.265179
       7A     -1.357870     8A     -1.265802     9A     -1.265797
      10A     -0.946070    11A     -0.784494    12A     -0.670023
      13A     -0.633735    14A     -0.633518    15A     -0.502977
      16A     -0.502432    17A     -0.468838    18A     -0.468537
      19A     -0.464454    20A     -0.442752    21A     -0.400405
      22A     -0.380857    23A     -0.380819

  @DF-RKS Final Energy:  -430.45976925151768

   => Energetics <=

    Nuclear Repulsion Energy =            231.4156203902008713
    One-Electron Energy =               -1053.2330790655444162
    Two-Electron Energy =                 431.0490655514059313
    DFT Exchange-Correlation Energy =     -39.6913761275800425
    Empirical Dispersion Energy =           0.0000000000000000
    VV10 Nonlocal Energy =                  0.0000000000000000
    Total Energy =                       -430.4597692515176846

  Dipole Moment: [D]
     X:    -1.5102      Y:     0.0037      Z:     0.0021     Total:     1.5102

*** Psi4 exiting successfully. Buy a developer a beer!
