                               Psi4 1.4a2.dev629

  ==> Input File <==

--------------------------------------------------------------------------
import os
memory 14 GB

molecule {
 N    4.4204813151    0.0035620885   -0.0061924675
 X    2.2380672400    1.0000000000   -0.0000000000
 C    2.2297778373   -0.0022624202    0.0039400370
 X    2.2380672400   -0.0000000000    1.0000000000
 C   -0.5801499245   -0.0028935955    0.0050160894
 F   -1.4252068583    1.1772770247   -2.0391045751
 F   -1.4337882266   -2.3640440742   -0.0073205423
 F   -1.4338007631    1.1883609767    2.0436614585
units bohr
}

basis {

assign 6-31g_2dfp_

[ 6-31g_2dfp_ ]
spherical

!----------------------------------------------------------------------
! Basis Set Exchange
! Version v0.8.13
! https://www.basissetexchange.org
!----------------------------------------------------------------------
!   Basis set: 6-31G(2df,p)
! Description: 6-31G(2df,p)
!        Role: orbital
!     Version: 0  (Data from the original Basis Set Exchange)
!----------------------------------------------------------------------

****
F     0
S    6   1.00
   7001.7130900              0.0018196169
   1051.3660900              0.0139160796
    239.2856900              0.0684053245
     67.3974453              0.233185760
     21.5199573              0.471267439
      7.40310130             0.356618546
SP   3   1.00
     20.8479528             -0.108506975            0.0716287243
      4.80830834            -0.146451658            0.3459121030
      1.34406986             1.128688580            0.7224699570
SP   1   1.00
      0.358151393            1.0000000              1.0000000
D    1   1.00
      3.5000000              1.0000000
D    1   1.00
      0.8750000              1.0000000
F    1   1.00
      1.8500000              1.0000000
****
C     0
S    6   1.00
   3047.5249000              0.0018347
    457.3695100              0.0140373
    103.9486900              0.0688426
     29.2101550              0.2321844
      9.2866630              0.4679413
      3.1639270              0.3623120
SP   3   1.00
      7.8682724             -0.1193324              0.0689991
      1.8812885             -0.1608542              0.3164240
      0.5442493              1.1434564              0.7443083
SP   1   1.00
      0.1687144              1.0000000              1.0000000
D    1   1.00
      1.2520000              1.0000000
D    1   1.00
      0.3130000              1.0000000
F    1   1.00
      0.8000000              1.0000000
****
N     0
S    6   1.00
   4173.5110000              0.0018348
    627.4579000              0.0139950
    142.9021000              0.0685870
     40.2343300              0.2322410
     12.8202100              0.4690700
      4.3904370              0.3604550
SP   3   1.00
     11.6263580             -0.1149610              0.0675800
      2.7162800             -0.1691180              0.3239070
      0.7722180              1.1458520              0.7408950
SP   1   1.00
      0.2120313              1.0000000              1.0000000
D    1   1.00
      1.8260000              1.0000000
D    1   1.00
      0.4565000              1.0000000
F    1   1.00
      1.0000000              1.0000000
****
}

set {
opt_type min
reference rhf
freeze_core true
e_convergence 10
d_convergence 10
ensure_bt_convergence true
dft_spherical_points 590
dft_radial_points 99
}

e = energy('b3lyp')

print_out('Grab this energy {0}'.format(e))
--------------------------------------------------------------------------

    Molecular point group: c1

    Geometry (in Bohr), charge = 0, multiplicity = 1:

       Center              X                  Y                   Z               Mass
    ------------   -----------------  -----------------  -----------------  -----------------
         N            4.419011859828     0.003369557947    -0.005858301779    14.003074004430
         C            2.228308382028    -0.002454950753     0.004274202721    12.000000000000
         C           -0.581619379772    -0.003086126053     0.005350255121    12.000000000000
         F           -1.426676313572     1.177084494147    -2.038770409379    18.998403162730
         F           -1.435257681872    -2.364236604753    -0.006986376579    18.998403162730
         F           -1.435270218372     1.188168446147     2.043995624221    18.998403162730

  Charge       = 0
  Multiplicity = 1
  Basis Set: ANONYMOUS4E01B80F
    Blend: 6-31G_2DFP_
  Basis Set: (ANONYMOUS4E01B80F AUX)
    Blend: DEF2-UNIVERSAL-JKFIT

    Orbital Energies [Eh]
    ---------------------

    Doubly Occupied:

       1A    -24.765320     2A    -24.765303     3A    -24.764896
       4A    -14.388838     5A    -10.497323     6A    -10.264015
       7A     -1.357745     8A     -1.266681     9A     -1.266145
      10A     -0.946023    11A     -0.784891    12A     -0.670029
      13A     -0.634300    14A     -0.633818    15A     -0.503256
      16A     -0.502647    17A     -0.469941    18A     -0.469341
      19A     -0.463691    20A     -0.443506    21A     -0.399793
      22A     -0.380571    23A     -0.380531

  @DF-RKS Final Energy:  -430.45980178300147

   => Energetics <=

    Nuclear Repulsion Energy =            231.5057405070165260
    One-Electron Energy =               -1053.4064799362820395
    Two-Electron Energy =                 431.1337728215358425
    DFT Exchange-Correlation Energy =     -39.6928351752718243
    Empirical Dispersion Energy =           0.0000000000000000
    VV10 Nonlocal Energy =                  0.0000000000000000
    Total Energy =                       -430.4598017830014669

  Dipole Moment: [D]
     X:    -1.5407      Y:    -0.0076      Z:     0.0133     Total:     1.5408

*** Psi4 exiting successfully. Buy a developer a beer!
