                               Psi4 1.4a2.dev629

  ==> Input File <==

--------------------------------------------------------------------------
import os
memory 14 GB

molecule {
 N    4.4330514103   -0.0002256866    0.0003861916
 X    2.2380672400    1.0000000000   -0.0000000000
 C    2.2339895458    0.0007434420   -0.0012832369
 X    2.2380672400    0.0000000000    1.0000000000
 C   -0.5729645896   -0.0023630162    0.0040937529
 F   -1.4392745254    1.1793596012   -2.0427109632
 F   -1.4387429391   -2.3556071367   -0.0003341790
 F   -1.4387455220    1.1780927962    2.0398484346
units bohr
}

basis {

assign 6-31g_2dfp_

[ 6-31g_2dfp_ ]
spherical

!----------------------------------------------------------------------
! Basis Set Exchange
! Version v0.8.13
! https://www.basissetexchange.org
!----------------------------------------------------------------------
!   Basis set: 6-31G(2df,p)
! Description: 6-31G(2df,p)
!        Role: orbital
!     Version: 0  (Data from the original Basis Set Exchange)
!----------------------------------------------------------------------

****
F     0
S    6   1.00
   7001.7130900              0.0018196169
   1051.3660900              0.0139160796
    239.2856900              0.0684053245
     67.3974453              0.233185760
     21.5199573              0.471267439
      7.40310130             0.356618546
SP   3   1.00
     20.8479528             -0.108506975            0.0716287243
      4.80830834            -0.146451658            0.3459121030
      1.34406986             1.128688580            0.7224699570
SP   1   1.00
      0.358151393            1.0000000              1.0000000
D    1   1.00
      3.5000000              1.0000000
D    1   1.00
      0.8750000              1.0000000
F    1   1.00
      1.8500000              1.0000000
****
C     0
S    6   1.00
   3047.5249000              0.0018347
    457.3695100              0.0140373
    103.9486900              0.0688426
     29.2101550              0.2321844
      9.2866630              0.4679413
      3.1639270              0.3623120
SP   3   1.00
      7.8682724             -0.1193324              0.0689991
      1.8812885             -0.1608542              0.3164240
      0.5442493              1.1434564              0.7443083
SP   1   1.00
      0.1687144              1.0000000              1.0000000
D    1   1.00
      1.2520000              1.0000000
D    1   1.00
      0.3130000              1.0000000
F    1   1.00
      0.8000000              1.0000000
****
N     0
S    6   1.00
   4173.5110000              0.0018348
    627.4579000              0.0139950
    142.9021000              0.0685870
     40.2343300              0.2322410
     12.8202100              0.4690700
      4.3904370              0.3604550
SP   3   1.00
     11.6263580             -0.1149610              0.0675800
      2.7162800             -0.1691180              0.3239070
      0.7722180              1.1458520              0.7408950
SP   1   1.00
      0.2120313              1.0000000              1.0000000
D    1   1.00
      1.8260000              1.0000000
D    1   1.00
      0.4565000              1.0000000
F    1   1.00
      1.0000000              1.0000000
****
}

set {
opt_type min
reference rhf
freeze_core true
e_convergence 10
d_convergence 10
ensure_bt_convergence true
dft_spherical_points 590
dft_radial_points 99
}

e = energy('b3lyp')

print_out('Grab this energy {0}'.format(e))
--------------------------------------------------------------------------

    Molecular point group: c1

    Geometry (in Bohr), charge = 0, multiplicity = 1:

       Center              X                  Y                   Z               Mass
    ------------   -----------------  -----------------  -----------------  -----------------
         N            4.433082538622    -0.000356865919     0.000613546005    14.003074004430
         C            2.234020674122     0.000612262681    -0.001055882495    12.000000000000
         C           -0.572933461278    -0.002494195519     0.004321107305    12.000000000000
         F           -1.439243397078     1.179228421881    -2.042483608795    18.998403162730
         F           -1.438711810778    -2.355738316019    -0.000106824595    18.998403162730
         F           -1.438714393678     1.177961616881     2.040075789005    18.998403162730

  Charge       = 0
  Multiplicity = 1
  Basis Set: ANONYMOUS5A991D64
    Blend: 6-31G_2DFP_
  Basis Set: (ANONYMOUS5A991D64 AUX)
    Blend: DEF2-UNIVERSAL-JKFIT

    Orbital Energies [Eh]
    ---------------------

    Doubly Occupied:

       1A    -24.765033     2A    -24.765017     3A    -24.763066
       4A    -14.391147     5A    -10.497040     6A    -10.266222
       7A     -1.357294     8A     -1.266395     9A     -1.264085
      10A     -0.945471    11A     -0.785358    12A     -0.670052
      13A     -0.633616    14A     -0.632834    15A     -0.502404
      16A     -0.502390    17A     -0.468765    18A     -0.467857
      19A     -0.464697    20A     -0.442426    21A     -0.401089
      22A     -0.380595    23A     -0.380516

  @DF-RKS Final Energy:  -430.45965744449268

   => Energetics <=

    Nuclear Repulsion Energy =            231.3633736714045881
    One-Electron Energy =               -1053.1345707823438715
    Two-Electron Energy =                 431.0005279959908080
    DFT Exchange-Correlation Energy =     -39.6889883295441805
    Empirical Dispersion Energy =           0.0000000000000000
    VV10 Nonlocal Energy =                  0.0000000000000000
    Total Energy =                       -430.4596574444926773

  Dipole Moment: [D]
     X:    -1.4881      Y:    -0.0132      Z:     0.0228     Total:     1.4883

*** Psi4 exiting successfully. Buy a developer a beer!
