                               Psi4 1.4a2.dev629

  ==> Input File <==

--------------------------------------------------------------------------
import os
memory 14 GB

molecule {
 N    4.4419098493   -0.0016594288    0.0028155928
 X    2.2380672400    1.0000000000    0.0000000000
 C    2.2463506556    0.0038112490   -0.0065458583
 X    2.2380672400    0.0000000000    1.0000000000
 C   -0.5721723049    0.0001175925   -0.0001925688
 F   -1.4437513520    1.1740560290   -2.0335273139
 F   -1.4474957130   -2.3532252972   -0.0003342726
 F   -1.4475277550    1.1768998556    2.0377844209
units bohr
}

basis {

assign 6-31g_2dfp_

[ 6-31g_2dfp_ ]
spherical

!----------------------------------------------------------------------
! Basis Set Exchange
! Version v0.8.13
! https://www.basissetexchange.org
!----------------------------------------------------------------------
!   Basis set: 6-31G(2df,p)
! Description: 6-31G(2df,p)
!        Role: orbital
!     Version: 0  (Data from the original Basis Set Exchange)
!----------------------------------------------------------------------

****
F     0
S    6   1.00
   7001.7130900              0.0018196169
   1051.3660900              0.0139160796
    239.2856900              0.0684053245
     67.3974453              0.233185760
     21.5199573              0.471267439
      7.40310130             0.356618546
SP   3   1.00
     20.8479528             -0.108506975            0.0716287243
      4.80830834            -0.146451658            0.3459121030
      1.34406986             1.128688580            0.7224699570
SP   1   1.00
      0.358151393            1.0000000              1.0000000
D    1   1.00
      3.5000000              1.0000000
D    1   1.00
      0.8750000              1.0000000
F    1   1.00
      1.8500000              1.0000000
****
C     0
S    6   1.00
   3047.5249000              0.0018347
    457.3695100              0.0140373
    103.9486900              0.0688426
     29.2101550              0.2321844
      9.2866630              0.4679413
      3.1639270              0.3623120
SP   3   1.00
      7.8682724             -0.1193324              0.0689991
      1.8812885             -0.1608542              0.3164240
      0.5442493              1.1434564              0.7443083
SP   1   1.00
      0.1687144              1.0000000              1.0000000
D    1   1.00
      1.2520000              1.0000000
D    1   1.00
      0.3130000              1.0000000
F    1   1.00
      0.8000000              1.0000000
****
N     0
S    6   1.00
   4173.5110000              0.0018348
    627.4579000              0.0139950
    142.9021000              0.0685870
     40.2343300              0.2322410
     12.8202100              0.4690700
      4.3904370              0.3604550
SP   3   1.00
     11.6263580             -0.1149610              0.0675800
      2.7162800             -0.1691180              0.3239070
      0.7722180              1.1458520              0.7408950
SP   1   1.00
      0.2120313              1.0000000              1.0000000
D    1   1.00
      1.8260000              1.0000000
D    1   1.00
      0.4565000              1.0000000
F    1   1.00
      1.0000000              1.0000000
****
}

set {
opt_type min
reference rhf
freeze_core true
e_convergence 10
d_convergence 10
ensure_bt_convergence true
dft_spherical_points 590
dft_radial_points 99
}

e = energy('b3lyp')

print_out('Grab this energy {0}'.format(e))
--------------------------------------------------------------------------

    Molecular point group: c1

    Geometry (in Bohr), charge = 0, multiplicity = 1:

       Center              X                  Y                   Z               Mass
    ------------   -----------------  -----------------  -----------------  -----------------
         N            4.443375778035    -0.001457254391     0.002467234731    14.003074004430
         C            2.247816584335     0.004013423409    -0.006894216369    12.000000000000
         C           -0.570706376165     0.000319766909    -0.000540926869    12.000000000000
         F           -1.442285423265     1.174258203409    -2.033875671969    18.998403162730
         F           -1.446029784265    -2.353023122791    -0.000682630669    18.998403162730
         F           -1.446061826265     1.177102030009     2.037436062831    18.998403162730

  Charge       = 0
  Multiplicity = 1
  Basis Set: ANONYMOUS59EE735B
    Blend: 6-31G_2DFP_
  Basis Set: (ANONYMOUS59EE735B AUX)
    Blend: DEF2-UNIVERSAL-JKFIT

    Orbital Energies [Eh]
    ---------------------

    Doubly Occupied:

       1A    -24.764582     2A    -24.763891     3A    -24.763876
       4A    -14.390777     5A    -10.497359     6A    -10.266339
       7A     -1.358007     8A     -1.265723     9A     -1.264630
      10A     -0.946114    11A     -0.784099    12A     -0.670015
      13A     -0.633327    14A     -0.633055    15A     -0.502473
      16A     -0.502439    17A     -0.467906    18A     -0.467531
      19A     -0.465218    20A     -0.441979    21A     -0.401014
      22A     -0.381139    23A     -0.381099

  @DF-RKS Final Energy:  -430.45964981503528

   => Energetics <=

    Nuclear Repulsion Energy =            231.3290476315492015
    One-Electron Energy =               -1053.0668113559081576
    Two-Electron Energy =                 430.9680623691270398
    DFT Exchange-Correlation Energy =     -39.6899484598033325
    Empirical Dispersion Energy =           0.0000000000000000
    VV10 Nonlocal Energy =                  0.0000000000000000
    Total Energy =                       -430.4596498150352772

  Dipole Moment: [D]
     X:    -1.4797      Y:     0.0075      Z:    -0.0130     Total:     1.4798

*** Psi4 exiting successfully. Buy a developer a beer!
