                               Psi4 1.4a2.dev629

  ==> Input File <==

--------------------------------------------------------------------------
import os
memory 14 GB

molecule {
 N    4.4311807965   -0.0006674493   -0.0041646037
 X    2.2380672400    1.0000000000   -0.0000000000
 C    2.2380667817    0.0019309945    0.0098465131
 X    2.2380672400    0.0000000000    1.0000000000
 C   -0.5761472778    0.0003035926    0.0004282284
 F   -1.4410797571    1.1810198612   -2.0428476905
 F   -1.4395699739   -2.3582607777    0.0010498496
 F   -1.4351371894    1.1756737787    2.0356877031
units bohr
}

basis {

assign 6-31g_2dfp_

[ 6-31g_2dfp_ ]
spherical

!----------------------------------------------------------------------
! Basis Set Exchange
! Version v0.8.13
! https://www.basissetexchange.org
!----------------------------------------------------------------------
!   Basis set: 6-31G(2df,p)
! Description: 6-31G(2df,p)
!        Role: orbital
!     Version: 0  (Data from the original Basis Set Exchange)
!----------------------------------------------------------------------

****
F     0
S    6   1.00
   7001.7130900              0.0018196169
   1051.3660900              0.0139160796
    239.2856900              0.0684053245
     67.3974453              0.233185760
     21.5199573              0.471267439
      7.40310130             0.356618546
SP   3   1.00
     20.8479528             -0.108506975            0.0716287243
      4.80830834            -0.146451658            0.3459121030
      1.34406986             1.128688580            0.7224699570
SP   1   1.00
      0.358151393            1.0000000              1.0000000
D    1   1.00
      3.5000000              1.0000000
D    1   1.00
      0.8750000              1.0000000
F    1   1.00
      1.8500000              1.0000000
****
C     0
S    6   1.00
   3047.5249000              0.0018347
    457.3695100              0.0140373
    103.9486900              0.0688426
     29.2101550              0.2321844
      9.2866630              0.4679413
      3.1639270              0.3623120
SP   3   1.00
      7.8682724             -0.1193324              0.0689991
      1.8812885             -0.1608542              0.3164240
      0.5442493              1.1434564              0.7443083
SP   1   1.00
      0.1687144              1.0000000              1.0000000
D    1   1.00
      1.2520000              1.0000000
D    1   1.00
      0.3130000              1.0000000
F    1   1.00
      0.8000000              1.0000000
****
N     0
S    6   1.00
   4173.5110000              0.0018348
    627.4579000              0.0139950
    142.9021000              0.0685870
     40.2343300              0.2322410
     12.8202100              0.4690700
      4.3904370              0.3604550
SP   3   1.00
     11.6263580             -0.1149610              0.0675800
      2.7162800             -0.1691180              0.3239070
      0.7722180              1.1458520              0.7408950
SP   1   1.00
      0.2120313              1.0000000              1.0000000
D    1   1.00
      1.8260000              1.0000000
D    1   1.00
      0.4565000              1.0000000
F    1   1.00
      1.0000000              1.0000000
****
}

set {
opt_type min
reference rhf
freeze_core true
e_convergence 10
d_convergence 10
ensure_bt_convergence true
dft_spherical_points 590
dft_radial_points 99
}

e = energy('b3lyp')

print_out('Grab this energy {0}'.format(e))
--------------------------------------------------------------------------

    Molecular point group: c1

    Geometry (in Bohr), charge = 0, multiplicity = 1:

       Center              X                  Y                   Z               Mass
    ------------   -----------------  -----------------  -----------------  -----------------
         N            4.431179461855    -0.000537926828    -0.003626665379    14.003074004430
         C            2.238065447055     0.002060516972     0.010384451421    12.000000000000
         C           -0.576148612445     0.000433115072     0.000966166721    12.000000000000
         F           -1.441081091745     1.181149383672    -2.042309752179    18.998403162730
         F           -1.439571308545    -2.358131255228     0.001587787921    18.998403162730
         F           -1.435138524045     1.175803301172     2.036225641421    18.998403162730

  Charge       = 0
  Multiplicity = 1
  Basis Set: ANONYMOUS75BB7A79
    Blend: 6-31G_2DFP_
  Basis Set: (ANONYMOUS75BB7A79 AUX)
    Blend: DEF2-UNIVERSAL-JKFIT

    Orbital Energies [Eh]
    ---------------------

    Doubly Occupied:

       1A    -24.765419     2A    -24.764344     3A    -24.764185
       4A    -14.389811     5A    -10.497341     6A    -10.265177
       7A     -1.357897     8A     -1.266647     9A     -1.264934
      10A     -0.946071    11A     -0.784495    12A     -0.670030
      13A     -0.633842    14A     -0.633421    15A     -0.502769
      16A     -0.502647    17A     -0.468968    18A     -0.468397
      19A     -0.464448    20A     -0.442749    21A     -0.400407
      22A     -0.380860    23A     -0.380813

  @DF-RKS Final Energy:  -430.45975747788930

   => Energetics <=

    Nuclear Repulsion Energy =            231.4159050022191479
    One-Electron Energy =               -1053.2335843823429968
    Two-Electron Energy =                 431.0493073944155640
    DFT Exchange-Correlation Energy =     -39.6913854921809559
    Empirical Dispersion Energy =           0.0000000000000000
    VV10 Nonlocal Energy =                  0.0000000000000000
    Total Energy =                       -430.4597574778892977

  Dipole Moment: [D]
     X:    -1.5101      Y:     0.0075      Z:     0.0217     Total:     1.5103

*** Psi4 exiting successfully. Buy a developer a beer!
