                               Psi4 1.4a2.dev629

  ==> Input File <==

--------------------------------------------------------------------------
import os
memory 14 GB

molecule {
 N    4.4293779589   -0.0035733648    0.0061666745
 X    2.2380672400    1.0000000000    0.0000000000
 C    2.2421510801    0.0022709839   -0.0039121130
 X    2.2380672400    0.0000000000    1.0000000000
 C   -0.5793482187    0.0028883174   -0.0049984946
 F   -1.4440115683    1.1810652775   -2.0456660876
 F   -1.4354217627   -2.3526437186    0.0073075129
 F   -1.4354341094    1.1699925044    2.0411025078
units bohr
}

basis {

assign 6-31g_2dfp_

[ 6-31g_2dfp_ ]
spherical

!----------------------------------------------------------------------
! Basis Set Exchange
! Version v0.8.13
! https://www.basissetexchange.org
!----------------------------------------------------------------------
!   Basis set: 6-31G(2df,p)
! Description: 6-31G(2df,p)
!        Role: orbital
!     Version: 0  (Data from the original Basis Set Exchange)
!----------------------------------------------------------------------

****
F     0
S    6   1.00
   7001.7130900              0.0018196169
   1051.3660900              0.0139160796
    239.2856900              0.0684053245
     67.3974453              0.233185760
     21.5199573              0.471267439
      7.40310130             0.356618546
SP   3   1.00
     20.8479528             -0.108506975            0.0716287243
      4.80830834            -0.146451658            0.3459121030
      1.34406986             1.128688580            0.7224699570
SP   1   1.00
      0.358151393            1.0000000              1.0000000
D    1   1.00
      3.5000000              1.0000000
D    1   1.00
      0.8750000              1.0000000
F    1   1.00
      1.8500000              1.0000000
****
C     0
S    6   1.00
   3047.5249000              0.0018347
    457.3695100              0.0140373
    103.9486900              0.0688426
     29.2101550              0.2321844
      9.2866630              0.4679413
      3.1639270              0.3623120
SP   3   1.00
      7.8682724             -0.1193324              0.0689991
      1.8812885             -0.1608542              0.3164240
      0.5442493              1.1434564              0.7443083
SP   1   1.00
      0.1687144              1.0000000              1.0000000
D    1   1.00
      1.2520000              1.0000000
D    1   1.00
      0.3130000              1.0000000
F    1   1.00
      0.8000000              1.0000000
****
N     0
S    6   1.00
   4173.5110000              0.0018348
    627.4579000              0.0139950
    142.9021000              0.0685870
     40.2343300              0.2322410
     12.8202100              0.4690700
      4.3904370              0.3604550
SP   3   1.00
     11.6263580             -0.1149610              0.0675800
      2.7162800             -0.1691180              0.3239070
      0.7722180              1.1458520              0.7408950
SP   1   1.00
      0.2120313              1.0000000              1.0000000
D    1   1.00
      1.8260000              1.0000000
D    1   1.00
      0.4565000              1.0000000
F    1   1.00
      1.0000000              1.0000000
****
}

set {
opt_type min
reference rhf
freeze_core true
e_convergence 10
d_convergence 10
ensure_bt_convergence true
dft_spherical_points 590
dft_radial_points 99
}

e = energy('b3lyp')

print_out('Grab this energy {0}'.format(e))
--------------------------------------------------------------------------

    Molecular point group: c1

    Geometry (in Bohr), charge = 0, multiplicity = 1:

       Center              X                  Y                   Z               Mass
    ------------   -----------------  -----------------  -----------------  -----------------
         N            4.429346900840    -0.003381185107     0.005834505809    14.003074004430
         C            2.242120022040     0.002463163593    -0.004244281691    12.000000000000
         C           -0.579379276760     0.003080497093    -0.005330663291    12.000000000000
         F           -1.444042626360     1.181257457193    -2.045998256291    18.998403162730
         F           -1.435452820760    -2.352451538907     0.006975344209    18.998403162730
         F           -1.435465167460     1.170184684093     2.040770339109    18.998403162730

  Charge       = 0
  Multiplicity = 1
  Basis Set: ANONYMOUSCA114410
    Blend: 6-31G_2DFP_
  Basis Set: (ANONYMOUSCA114410 AUX)
    Blend: DEF2-UNIVERSAL-JKFIT

    Orbital Energies [Eh]
    ---------------------

    Doubly Occupied:

       1A    -24.765208     2A    -24.764792     3A    -24.764776
       4A    -14.388469     5A    -10.497643     6A    -10.264127
       7A     -1.358472     8A     -1.266624     9A     -1.266078
      10A     -0.946669    11A     -0.783645    12A     -0.670002
      13A     -0.634278    14A     -0.633789    15A     -0.503331
      16A     -0.502711    17A     -0.469382    18A     -0.468778
      19A     -0.464160    20A     -0.443055    21A     -0.399717
      22A     -0.381141    23A     -0.381102

  @DF-RKS Final Energy:  -430.45981269102771

   => Energetics <=

    Nuclear Repulsion Energy =            231.4689745494845567
    One-Electron Energy =               -1053.3336283571818512
    Two-Electron Energy =                 431.0986444439243996
    DFT Exchange-Correlation Energy =     -39.6938033272547699
    Empirical Dispersion Energy =           0.0000000000000000
    VV10 Nonlocal Energy =                  0.0000000000000000
    Total Energy =                       -430.4598126910277074

  Dipole Moment: [D]
     X:    -1.5323      Y:     0.0077      Z:    -0.0132     Total:     1.5324

*** Psi4 exiting successfully. Buy a developer a beer!
