                               Psi4 1.4a2.dev629

  ==> Input File <==

--------------------------------------------------------------------------
import os
memory 14 GB

molecule {
 N    4.4312047640    0.0025482270    0.0009637632
 X    2.2380672400    1.0000000000    0.0000000000
 C    2.2380650647   -0.0064744519   -0.0020355605
 X    2.2380672400   -0.0000000000    1.0000000000
 C   -0.5761516618    0.0019525023   -0.0043438612
 F   -1.4382492868    1.1759063882   -2.0394638190
 F   -1.4365749643   -2.3535313980   -0.0003265564
 F   -1.4409805357    1.1795987324    2.0452060340
units bohr
}

basis {

assign 6-31g_2dfp_

[ 6-31g_2dfp_ ]
spherical

!----------------------------------------------------------------------
! Basis Set Exchange
! Version v0.8.13
! https://www.basissetexchange.org
!----------------------------------------------------------------------
!   Basis set: 6-31G(2df,p)
! Description: 6-31G(2df,p)
!        Role: orbital
!     Version: 0  (Data from the original Basis Set Exchange)
!----------------------------------------------------------------------

****
F     0
S    6   1.00
   7001.7130900              0.0018196169
   1051.3660900              0.0139160796
    239.2856900              0.0684053245
     67.3974453              0.233185760
     21.5199573              0.471267439
      7.40310130             0.356618546
SP   3   1.00
     20.8479528             -0.108506975            0.0716287243
      4.80830834            -0.146451658            0.3459121030
      1.34406986             1.128688580            0.7224699570
SP   1   1.00
      0.358151393            1.0000000              1.0000000
D    1   1.00
      3.5000000              1.0000000
D    1   1.00
      0.8750000              1.0000000
F    1   1.00
      1.8500000              1.0000000
****
C     0
S    6   1.00
   3047.5249000              0.0018347
    457.3695100              0.0140373
    103.9486900              0.0688426
     29.2101550              0.2321844
      9.2866630              0.4679413
      3.1639270              0.3623120
SP   3   1.00
      7.8682724             -0.1193324              0.0689991
      1.8812885             -0.1608542              0.3164240
      0.5442493              1.1434564              0.7443083
SP   1   1.00
      0.1687144              1.0000000              1.0000000
D    1   1.00
      1.2520000              1.0000000
D    1   1.00
      0.3130000              1.0000000
F    1   1.00
      0.8000000              1.0000000
****
N     0
S    6   1.00
   4173.5110000              0.0018348
    627.4579000              0.0139950
    142.9021000              0.0685870
     40.2343300              0.2322410
     12.8202100              0.4690700
      4.3904370              0.3604550
SP   3   1.00
     11.6263580             -0.1149610              0.0675800
      2.7162800             -0.1691180              0.3239070
      0.7722180              1.1458520              0.7408950
SP   1   1.00
      0.2120313              1.0000000              1.0000000
D    1   1.00
      1.8260000              1.0000000
D    1   1.00
      0.4565000              1.0000000
F    1   1.00
      1.0000000              1.0000000
****
}

set {
opt_type min
reference rhf
freeze_core true
e_convergence 10
d_convergence 10
ensure_bt_convergence true
dft_spherical_points 590
dft_radial_points 99
}

e = energy('b3lyp')

print_out('Grab this energy {0}'.format(e))
--------------------------------------------------------------------------

    Molecular point group: c1

    Geometry (in Bohr), charge = 0, multiplicity = 1:

       Center              X                  Y                   Z               Mass
    ------------   -----------------  -----------------  -----------------  -----------------
         N            4.431204240174     0.002349095047     0.000544477177    14.003074004430
         C            2.238064540874    -0.006673583853    -0.002454846523    12.000000000000
         C           -0.576152185626     0.001753370347    -0.004763147223    12.000000000000
         F           -1.438249810626     1.175707256247    -2.039883105023    18.998403162730
         F           -1.436575488126    -2.353730529953    -0.000745842423    18.998403162730
         F           -1.440981059526     1.179399600447     2.044786747977    18.998403162730

  Charge       = 0
  Multiplicity = 1
  Basis Set: ANONYMOUS3820F56A
    Blend: 6-31G_2DFP_
  Basis Set: (ANONYMOUS3820F56A AUX)
    Blend: DEF2-UNIVERSAL-JKFIT

    Orbital Energies [Eh]
    ---------------------

    Doubly Occupied:

       1A    -24.765961     2A    -24.764531     3A    -24.763458
       4A    -14.389810     5A    -10.497341     6A    -10.265177
       7A     -1.357919     8A     -1.267117     9A     -1.264449
      10A     -0.946070    11A     -0.784497    12A     -0.670044
      13A     -0.634052    14A     -0.633215    15A     -0.502772
      16A     -0.502660    17A     -0.469219    18A     -0.468174
      19A     -0.464411    20A     -0.442732    21A     -0.400405
      22A     -0.380876    23A     -0.380795

  @DF-RKS Final Energy:  -430.45975738008485

   => Energetics <=

    Nuclear Repulsion Energy =            231.4159344109725112
    One-Electron Energy =               -1053.2336102824583577
    Two-Electron Energy =                 431.0493095436565341
    DFT Exchange-Correlation Energy =     -39.6913910522555895
    Empirical Dispersion Energy =           0.0000000000000000
    VV10 Nonlocal Energy =                  0.0000000000000000
    Total Energy =                       -430.4597573800848522

  Dipole Moment: [D]
     X:    -1.5102      Y:    -0.0018      Z:    -0.0315     Total:     1.5105

*** Psi4 exiting successfully. Buy a developer a beer!
