                               Psi4 1.4a2.dev629

  ==> Input File <==

--------------------------------------------------------------------------
import os
memory 14 GB

molecule {
 N    4.4258660056   -0.0088487077   -0.0051065146
 X    2.2380672400    1.0000000000   -0.0000000000
 C    2.2367790682    0.0007818888    0.0004559366
 X    2.2380672400    0.0000000000    1.0000000000
 C   -0.5724303561    0.0027002293    0.0015683792
 F   -1.4376431240    1.1805488314   -2.0330059717
 F   -1.4244102151   -2.3524080974    0.0029459207
 F   -1.4508479985    1.1772258555    2.0331422498
units bohr
}

basis {

assign 6-31g_2dfp_

[ 6-31g_2dfp_ ]
spherical

!----------------------------------------------------------------------
! Basis Set Exchange
! Version v0.8.13
! https://www.basissetexchange.org
!----------------------------------------------------------------------
!   Basis set: 6-31G(2df,p)
! Description: 6-31G(2df,p)
!        Role: orbital
!     Version: 0  (Data from the original Basis Set Exchange)
!----------------------------------------------------------------------

****
F     0
S    6   1.00
   7001.7130900              0.0018196169
   1051.3660900              0.0139160796
    239.2856900              0.0684053245
     67.3974453              0.233185760
     21.5199573              0.471267439
      7.40310130             0.356618546
SP   3   1.00
     20.8479528             -0.108506975            0.0716287243
      4.80830834            -0.146451658            0.3459121030
      1.34406986             1.128688580            0.7224699570
SP   1   1.00
      0.358151393            1.0000000              1.0000000
D    1   1.00
      3.5000000              1.0000000
D    1   1.00
      0.8750000              1.0000000
F    1   1.00
      1.8500000              1.0000000
****
C     0
S    6   1.00
   3047.5249000              0.0018347
    457.3695100              0.0140373
    103.9486900              0.0688426
     29.2101550              0.2321844
      9.2866630              0.4679413
      3.1639270              0.3623120
SP   3   1.00
      7.8682724             -0.1193324              0.0689991
      1.8812885             -0.1608542              0.3164240
      0.5442493              1.1434564              0.7443083
SP   1   1.00
      0.1687144              1.0000000              1.0000000
D    1   1.00
      1.2520000              1.0000000
D    1   1.00
      0.3130000              1.0000000
F    1   1.00
      0.8000000              1.0000000
****
N     0
S    6   1.00
   4173.5110000              0.0018348
    627.4579000              0.0139950
    142.9021000              0.0685870
     40.2343300              0.2322410
     12.8202100              0.4690700
      4.3904370              0.3604550
SP   3   1.00
     11.6263580             -0.1149610              0.0675800
      2.7162800             -0.1691180              0.3239070
      0.7722180              1.1458520              0.7408950
SP   1   1.00
      0.2120313              1.0000000              1.0000000
D    1   1.00
      1.8260000              1.0000000
D    1   1.00
      0.4565000              1.0000000
F    1   1.00
      1.0000000              1.0000000
****
}

set {
opt_type min
reference rhf
freeze_core true
e_convergence 10
d_convergence 10
ensure_bt_convergence true
dft_spherical_points 590
dft_radial_points 99
}

e = energy('b3lyp')

print_out('Grab this energy {0}'.format(e))
--------------------------------------------------------------------------

    Molecular point group: c1

    Geometry (in Bohr), charge = 0, multiplicity = 1:

       Center              X                  Y                   Z               Mass
    ------------   -----------------  -----------------  -----------------  -----------------
         N            4.425764158049    -0.009057479255    -0.005225903528    14.003074004430
         C            2.236677220649     0.000573117245     0.000336547672    12.000000000000
         C           -0.572532203651     0.002491457745     0.001448990272    12.000000000000
         F           -1.437744971551     1.180340059845    -2.033125360628    18.998403162730
         F           -1.424512062651    -2.352616868955     0.002826531772    18.998403162730
         F           -1.450949846051     1.177017083945     2.033022860872    18.998403162730

  Charge       = 0
  Multiplicity = 1
  Basis Set: ANONYMOUS42893F6F
    Blend: 6-31G_2DFP_
  Basis Set: (ANONYMOUS42893F6F AUX)
    Blend: DEF2-UNIVERSAL-JKFIT

    Orbital Energies [Eh]
    ---------------------

    Doubly Occupied:

       1A    -24.764499     2A    -24.764320     3A    -24.764148
       4A    -14.389360     5A    -10.496558     6A    -10.264506
       7A     -1.359202     8A     -1.266635     9A     -1.265786
      10A     -0.946976    11A     -0.784894    12A     -0.670800
      13A     -0.634290    14A     -0.633907    15A     -0.503257
      16A     -0.502724    17A     -0.468808    18A     -0.468242
      19A     -0.464580    20A     -0.442430    21A     -0.400401
      22A     -0.381468    23A     -0.381306

  @DF-RKS Final Energy:  -430.45976528636402

   => Energetics <=

    Nuclear Repulsion Energy =            231.8057937435756060
    One-Electron Energy =               -1054.0023943259470798
    Two-Electron Energy =                 431.4343201856559062
    DFT Exchange-Correlation Energy =     -39.6974848896483934
    Empirical Dispersion Energy =           0.0000000000000000
    VV10 Nonlocal Energy =                  0.0000000000000000
    Total Energy =                       -430.4597652863640178

  Dipole Moment: [D]
     X:    -1.5030      Y:     0.0054      Z:     0.0032     Total:     1.5030

*** Psi4 exiting successfully. Buy a developer a beer!
