                               Psi4 1.4a2.dev629

  ==> Input File <==

--------------------------------------------------------------------------
import os
memory 14 GB

molecule {
 N    4.4330352637   -0.0023143484   -0.0013289552
 X    2.2380672400    1.0000000000   -0.0000000000
 C    2.2339920810    0.0057174412    0.0032952949
 X    2.2380672400    0.0000000000    1.0000000000
 C   -0.5729622536    0.0004156448    0.0002397762
 F   -1.4389224915    1.1795098765   -2.0402304035
 F   -1.4411226668   -2.3603819219    0.0006829286
 F   -1.4367065528    1.1770533079    2.0373413591
units bohr
}

basis {

assign 6-31g_2dfp_

[ 6-31g_2dfp_ ]
spherical

!----------------------------------------------------------------------
! Basis Set Exchange
! Version v0.8.13
! https://www.basissetexchange.org
!----------------------------------------------------------------------
!   Basis set: 6-31G(2df,p)
! Description: 6-31G(2df,p)
!        Role: orbital
!     Version: 0  (Data from the original Basis Set Exchange)
!----------------------------------------------------------------------

****
F     0
S    6   1.00
   7001.7130900              0.0018196169
   1051.3660900              0.0139160796
    239.2856900              0.0684053245
     67.3974453              0.233185760
     21.5199573              0.471267439
      7.40310130             0.356618546
SP   3   1.00
     20.8479528             -0.108506975            0.0716287243
      4.80830834            -0.146451658            0.3459121030
      1.34406986             1.128688580            0.7224699570
SP   1   1.00
      0.358151393            1.0000000              1.0000000
D    1   1.00
      3.5000000              1.0000000
D    1   1.00
      0.8750000              1.0000000
F    1   1.00
      1.8500000              1.0000000
****
C     0
S    6   1.00
   3047.5249000              0.0018347
    457.3695100              0.0140373
    103.9486900              0.0688426
     29.2101550              0.2321844
      9.2866630              0.4679413
      3.1639270              0.3623120
SP   3   1.00
      7.8682724             -0.1193324              0.0689991
      1.8812885             -0.1608542              0.3164240
      0.5442493              1.1434564              0.7443083
SP   1   1.00
      0.1687144              1.0000000              1.0000000
D    1   1.00
      1.2520000              1.0000000
D    1   1.00
      0.3130000              1.0000000
F    1   1.00
      0.8000000              1.0000000
****
N     0
S    6   1.00
   4173.5110000              0.0018348
    627.4579000              0.0139950
    142.9021000              0.0685870
     40.2343300              0.2322410
     12.8202100              0.4690700
      4.3904370              0.3604550
SP   3   1.00
     11.6263580             -0.1149610              0.0675800
      2.7162800             -0.1691180              0.3239070
      0.7722180              1.1458520              0.7408950
SP   1   1.00
      0.2120313              1.0000000              1.0000000
D    1   1.00
      1.8260000              1.0000000
D    1   1.00
      0.4565000              1.0000000
F    1   1.00
      1.0000000              1.0000000
****
}

set {
opt_type min
reference rhf
freeze_core true
e_convergence 10
d_convergence 10
ensure_bt_convergence true
dft_spherical_points 590
dft_radial_points 99
}

e = energy('b3lyp')

print_out('Grab this energy {0}'.format(e))
--------------------------------------------------------------------------

    Molecular point group: c1

    Geometry (in Bohr), charge = 0, multiplicity = 1:

       Center              X                  Y                   Z               Mass
    ------------   -----------------  -----------------  -----------------  -----------------
         N            4.433065901835    -0.001984227967    -0.001138411944    14.003074004430
         C            2.234022719135     0.006047561633     0.003485838156    12.000000000000
         C           -0.572931615465     0.000745765233     0.000430319456    12.000000000000
         F           -1.438891853365     1.179839996933    -2.040039860244    18.998403162730
         F           -1.441092028665    -2.360051801467     0.000873471856    18.998403162730
         F           -1.436675914665     1.177383428333     2.037531902356    18.998403162730

  Charge       = 0
  Multiplicity = 1
  Basis Set: ANONYMOUS87E01E27
    Blend: 6-31G_2DFP_
  Basis Set: (ANONYMOUS87E01E27 AUX)
    Blend: DEF2-UNIVERSAL-JKFIT

    Orbital Energies [Eh]
    ---------------------

    Doubly Occupied:

       1A    -24.764909     2A    -24.764371     3A    -24.763835
       4A    -14.391147     5A    -10.497040     6A    -10.266221
       7A     -1.357282     8A     -1.265916     9A     -1.264574
      10A     -0.945472    11A     -0.785357    12A     -0.670041
      13A     -0.633388    14A     -0.633060    15A     -0.502447
      16A     -0.502333    17A     -0.468506    18A     -0.468076
      19A     -0.464743    20A     -0.442441    21A     -0.401090
      22A     -0.380568    23A     -0.380544

  @DF-RKS Final Energy:  -430.45965537112812

   => Energetics <=

    Nuclear Repulsion Energy =            231.3633437816994842
    One-Electron Energy =               -1053.1345252556698142
    Two-Electron Energy =                 431.0005115662780213
    DFT Exchange-Correlation Energy =     -39.6889854634358556
    Empirical Dispersion Energy =           0.0000000000000000
    VV10 Nonlocal Energy =                  0.0000000000000000
    Total Energy =                       -430.4596553711281217

  Dipole Moment: [D]
     X:    -1.4881      Y:     0.0149      Z:     0.0086     Total:     1.4882

*** Psi4 exiting successfully. Buy a developer a beer!
