                               Psi4 1.4a2.dev629

  ==> Input File <==

--------------------------------------------------------------------------
import os
memory 14 GB

molecule {
 N    4.4330386902   -0.0041447257    0.0071811261
 X    2.2380672400    1.0000000000   -0.0000000000
 C    2.2339890455   -0.0003561662    0.0006147777
 X    2.2380672400    0.0000000000    1.0000000000
 C   -0.5729717705    0.0001589141   -0.0002756722
 F   -1.4533459195    1.1758408294   -2.0366159616
 F   -1.4316989514   -2.3590836661   -0.0092871368
 F   -1.4316977144    1.1875848145    2.0383828668
units bohr
}

basis {

assign 6-31g_2dfp_

[ 6-31g_2dfp_ ]
spherical

!----------------------------------------------------------------------
! Basis Set Exchange
! Version v0.8.13
! https://www.basissetexchange.org
!----------------------------------------------------------------------
!   Basis set: 6-31G(2df,p)
! Description: 6-31G(2df,p)
!        Role: orbital
!     Version: 0  (Data from the original Basis Set Exchange)
!----------------------------------------------------------------------

****
F     0
S    6   1.00
   7001.7130900              0.0018196169
   1051.3660900              0.0139160796
    239.2856900              0.0684053245
     67.3974453              0.233185760
     21.5199573              0.471267439
      7.40310130             0.356618546
SP   3   1.00
     20.8479528             -0.108506975            0.0716287243
      4.80830834            -0.146451658            0.3459121030
      1.34406986             1.128688580            0.7224699570
SP   1   1.00
      0.358151393            1.0000000              1.0000000
D    1   1.00
      3.5000000              1.0000000
D    1   1.00
      0.8750000              1.0000000
F    1   1.00
      1.8500000              1.0000000
****
C     0
S    6   1.00
   3047.5249000              0.0018347
    457.3695100              0.0140373
    103.9486900              0.0688426
     29.2101550              0.2321844
      9.2866630              0.4679413
      3.1639270              0.3623120
SP   3   1.00
      7.8682724             -0.1193324              0.0689991
      1.8812885             -0.1608542              0.3164240
      0.5442493              1.1434564              0.7443083
SP   1   1.00
      0.1687144              1.0000000              1.0000000
D    1   1.00
      1.2520000              1.0000000
D    1   1.00
      0.3130000              1.0000000
F    1   1.00
      0.8000000              1.0000000
****
N     0
S    6   1.00
   4173.5110000              0.0018348
    627.4579000              0.0139950
    142.9021000              0.0685870
     40.2343300              0.2322410
     12.8202100              0.4690700
      4.3904370              0.3604550
SP   3   1.00
     11.6263580             -0.1149610              0.0675800
      2.7162800             -0.1691180              0.3239070
      0.7722180              1.1458520              0.7408950
SP   1   1.00
      0.2120313              1.0000000              1.0000000
D    1   1.00
      1.8260000              1.0000000
D    1   1.00
      0.4565000              1.0000000
F    1   1.00
      1.0000000              1.0000000
****
}

set {
opt_type min
reference rhf
freeze_core true
e_convergence 10
d_convergence 10
ensure_bt_convergence true
dft_spherical_points 590
dft_radial_points 99
}

e = energy('b3lyp')

print_out('Grab this energy {0}'.format(e))
--------------------------------------------------------------------------

    Molecular point group: c1

    Geometry (in Bohr), charge = 0, multiplicity = 1:

       Center              X                  Y                   Z               Mass
    ------------   -----------------  -----------------  -----------------  -----------------
         N            4.433068583813    -0.004377200625     0.007583715328    14.003074004430
         C            2.234018939113    -0.000588641125     0.001017366928    12.000000000000
         C           -0.572941876887    -0.000073560825     0.000126917028    12.000000000000
         F           -1.453316025887     1.175608354475    -2.036213372372    18.998403162730
         F           -1.431669057787    -2.359316141025    -0.008884547572    18.998403162730
         F           -1.431667820787     1.187352339575     2.038785456028    18.998403162730

  Charge       = 0
  Multiplicity = 1
  Basis Set: ANONYMOUSF50CEA14
    Blend: 6-31G_2DFP_
  Basis Set: (ANONYMOUSF50CEA14 AUX)
    Blend: DEF2-UNIVERSAL-JKFIT

    Orbital Energies [Eh]
    ---------------------

    Doubly Occupied:

       1A    -24.764610     2A    -24.764594     3A    -24.763908
       4A    -14.391145     5A    -10.497042     6A    -10.266221
       7A     -1.357262     8A     -1.265938     9A     -1.264565
      10A     -0.945470    11A     -0.785357    12A     -0.670035
      13A     -0.633582    14A     -0.632858    15A     -0.502834
      16A     -0.501945    17A     -0.468798    18A     -0.467797
      19A     -0.464750    20A     -0.442424    21A     -0.401087
      22A     -0.380631    23A     -0.380477

  @DF-RKS Final Energy:  -430.45964417241777

   => Energetics <=

    Nuclear Repulsion Energy =            231.3637662267971393
    One-Electron Energy =               -1053.1354092391991344
    Two-Electron Energy =                 431.0009844985651171
    DFT Exchange-Correlation Energy =     -39.6889856585808616
    Empirical Dispersion Energy =           0.0000000000000000
    VV10 Nonlocal Energy =                  0.0000000000000000
    Total Energy =                       -430.4596441724177680

  Dipole Moment: [D]
     X:    -1.4882      Y:    -0.0011      Z:     0.0019     Total:     1.4882

*** Psi4 exiting successfully. Buy a developer a beer!
