                               Psi4 1.4a2.dev629

  ==> Input File <==

--------------------------------------------------------------------------
import os
memory 14 GB

molecule {
 N    4.4293858510    0.0041391746   -0.0071669528
 X    2.2380672400    1.0000000000    0.0000000000
 C    2.2421409456    0.0003662407   -0.0006365301
 X    2.2380672400   -0.0000000000    1.0000000000
 C   -0.5793584388   -0.0001521480    0.0002630969
 F   -1.4238499434    1.1803406620   -2.0444099053
 F   -1.4455031482   -2.3533580422    0.0092549208
 F   -1.4455018862    1.1686641129    2.0426953705
units bohr
}

basis {

assign 6-31g_2dfp_

[ 6-31g_2dfp_ ]
spherical

!----------------------------------------------------------------------
! Basis Set Exchange
! Version v0.8.13
! https://www.basissetexchange.org
!----------------------------------------------------------------------
!   Basis set: 6-31G(2df,p)
! Description: 6-31G(2df,p)
!        Role: orbital
!     Version: 0  (Data from the original Basis Set Exchange)
!----------------------------------------------------------------------

****
F     0
S    6   1.00
   7001.7130900              0.0018196169
   1051.3660900              0.0139160796
    239.2856900              0.0684053245
     67.3974453              0.233185760
     21.5199573              0.471267439
      7.40310130             0.356618546
SP   3   1.00
     20.8479528             -0.108506975            0.0716287243
      4.80830834            -0.146451658            0.3459121030
      1.34406986             1.128688580            0.7224699570
SP   1   1.00
      0.358151393            1.0000000              1.0000000
D    1   1.00
      3.5000000              1.0000000
D    1   1.00
      0.8750000              1.0000000
F    1   1.00
      1.8500000              1.0000000
****
C     0
S    6   1.00
   3047.5249000              0.0018347
    457.3695100              0.0140373
    103.9486900              0.0688426
     29.2101550              0.2321844
      9.2866630              0.4679413
      3.1639270              0.3623120
SP   3   1.00
      7.8682724             -0.1193324              0.0689991
      1.8812885             -0.1608542              0.3164240
      0.5442493              1.1434564              0.7443083
SP   1   1.00
      0.1687144              1.0000000              1.0000000
D    1   1.00
      1.2520000              1.0000000
D    1   1.00
      0.3130000              1.0000000
F    1   1.00
      0.8000000              1.0000000
****
N     0
S    6   1.00
   4173.5110000              0.0018348
    627.4579000              0.0139950
    142.9021000              0.0685870
     40.2343300              0.2322410
     12.8202100              0.4690700
      4.3904370              0.3604550
SP   3   1.00
     11.6263580             -0.1149610              0.0675800
      2.7162800             -0.1691180              0.3239070
      0.7722180              1.1458520              0.7408950
SP   1   1.00
      0.2120313              1.0000000              1.0000000
D    1   1.00
      1.8260000              1.0000000
D    1   1.00
      0.4565000              1.0000000
F    1   1.00
      1.0000000              1.0000000
****
}

set {
opt_type min
reference rhf
freeze_core true
e_convergence 10
d_convergence 10
ensure_bt_convergence true
dft_spherical_points 590
dft_radial_points 99
}

e = energy('b3lyp')

print_out('Grab this energy {0}'.format(e))
--------------------------------------------------------------------------

    Molecular point group: c1

    Geometry (in Bohr), charge = 0, multiplicity = 1:

       Center              X                  Y                   Z               Mass
    ------------   -----------------  -----------------  -----------------  -----------------
         N            4.429353708415     0.004372598256    -0.007571325626    14.003074004430
         C            2.242108803015     0.000599664356    -0.001040902926    12.000000000000
         C           -0.579390581385     0.000081275656    -0.000141275926    12.000000000000
         F           -1.423882085985     1.180574085656    -2.044814278126    18.998403162730
         F           -1.445535290785    -2.353124618544     0.008850547974    18.998403162730
         F           -1.445534028785     1.168897536556     2.042290997674    18.998403162730

  Charge       = 0
  Multiplicity = 1
  Basis Set: ANONYMOUS2BAB8004
    Blend: 6-31G_2DFP_
  Basis Set: (ANONYMOUS2BAB8004 AUX)
    Blend: DEF2-UNIVERSAL-JKFIT

    Orbital Energies [Eh]
    ---------------------

    Doubly Occupied:

       1A    -24.765393     2A    -24.764702     3A    -24.764686
       4A    -14.388466     5A    -10.497644     6A    -10.264124
       7A     -1.358467     8A     -1.267048     9A     -1.265662
      10A     -0.946666    11A     -0.783646    12A     -0.670002
      13A     -0.634396    14A     -0.633672    15A     -0.503465
      16A     -0.502581    17A     -0.469581    18A     -0.468594
      19A     -0.464157    20A     -0.443047    21A     -0.399715
      22A     -0.381195    23A     -0.381042

  @DF-RKS Final Energy:  -430.45980828761554

   => Energetics <=

    Nuclear Repulsion Energy =            231.4687933262566446
    One-Electron Energy =               -1053.3332506482527151
    Two-Electron Energy =                 431.0984521904383087
    DFT Exchange-Correlation Energy =     -39.6938031560577897
    Empirical Dispersion Energy =           0.0000000000000000
    VV10 Nonlocal Energy =                  0.0000000000000000
    Total Energy =                       -430.4598082876155445

  Dipole Moment: [D]
     X:    -1.5324      Y:     0.0011      Z:    -0.0019     Total:     1.5324

*** Psi4 exiting successfully. Buy a developer a beer!
