                               Psi4 1.4a2.dev629

  ==> Input File <==

--------------------------------------------------------------------------
import os
memory 14 GB

molecule {
 N    4.4365498386    0.0002202510   -0.0003862021
 X    2.2380672400    1.0000000000    0.0000000000
 C    2.2393452572   -0.0007421566    0.0012899021
 X    2.2380672400   -0.0000000000    1.0000000000
 C   -0.5798981268    0.0023742324   -0.0041114086
 F   -1.4392124015    1.1797574064   -2.0433999795
 F   -1.4397342995   -2.3625818481    0.0003679240
 F   -1.4397368879    1.1809721148    2.0462397641
units bohr
}

basis {

assign 6-31g_2dfp_

[ 6-31g_2dfp_ ]
spherical

!----------------------------------------------------------------------
! Basis Set Exchange
! Version v0.8.13
! https://www.basissetexchange.org
!----------------------------------------------------------------------
!   Basis set: 6-31G(2df,p)
! Description: 6-31G(2df,p)
!        Role: orbital
!     Version: 0  (Data from the original Basis Set Exchange)
!----------------------------------------------------------------------

****
F     0
S    6   1.00
   7001.7130900              0.0018196169
   1051.3660900              0.0139160796
    239.2856900              0.0684053245
     67.3974453              0.233185760
     21.5199573              0.471267439
      7.40310130             0.356618546
SP   3   1.00
     20.8479528             -0.108506975            0.0716287243
      4.80830834            -0.146451658            0.3459121030
      1.34406986             1.128688580            0.7224699570
SP   1   1.00
      0.358151393            1.0000000              1.0000000
D    1   1.00
      3.5000000              1.0000000
D    1   1.00
      0.8750000              1.0000000
F    1   1.00
      1.8500000              1.0000000
****
C     0
S    6   1.00
   3047.5249000              0.0018347
    457.3695100              0.0140373
    103.9486900              0.0688426
     29.2101550              0.2321844
      9.2866630              0.4679413
      3.1639270              0.3623120
SP   3   1.00
      7.8682724             -0.1193324              0.0689991
      1.8812885             -0.1608542              0.3164240
      0.5442493              1.1434564              0.7443083
SP   1   1.00
      0.1687144              1.0000000              1.0000000
D    1   1.00
      1.2520000              1.0000000
D    1   1.00
      0.3130000              1.0000000
F    1   1.00
      0.8000000              1.0000000
****
N     0
S    6   1.00
   4173.5110000              0.0018348
    627.4579000              0.0139950
    142.9021000              0.0685870
     40.2343300              0.2322410
     12.8202100              0.4690700
      4.3904370              0.3604550
SP   3   1.00
     11.6263580             -0.1149610              0.0675800
      2.7162800             -0.1691180              0.3239070
      0.7722180              1.1458520              0.7408950
SP   1   1.00
      0.2120313              1.0000000              1.0000000
D    1   1.00
      1.8260000              1.0000000
D    1   1.00
      0.4565000              1.0000000
F    1   1.00
      1.0000000              1.0000000
****
}

set {
opt_type min
reference rhf
freeze_core true
e_convergence 10
d_convergence 10
ensure_bt_convergence true
dft_spherical_points 590
dft_radial_points 99
}

e = energy('b3lyp')

print_out('Grab this energy {0}'.format(e))
--------------------------------------------------------------------------

    Molecular point group: c1

    Geometry (in Bohr), charge = 0, multiplicity = 1:

       Center              X                  Y                   Z               Mass
    ------------   -----------------  -----------------  -----------------  -----------------
         N            4.436648689598     0.000352065514    -0.000614366713    14.003074004430
         C            2.239444108198    -0.000610342086     0.001061737487    12.000000000000
         C           -0.579799275802     0.002506046914    -0.004339573213    12.000000000000
         F           -1.439113550502     1.179889220914    -2.043628144113    18.998403162730
         F           -1.439635448502    -2.362450033586     0.000139759387    18.998403162730
         F           -1.439638036902     1.181103929314     2.046011599487    18.998403162730

  Charge       = 0
  Multiplicity = 1
  Basis Set: ANONYMOUS1C0B5400
    Blend: 6-31G_2DFP_
  Basis Set: (ANONYMOUS1C0B5400 AUX)
    Blend: DEF2-UNIVERSAL-JKFIT

    Orbital Energies [Eh]
    ---------------------

    Doubly Occupied:

       1A    -24.766287     2A    -24.764329     3A    -24.764312
       4A    -14.390254     5A    -10.498126     6A    -10.265847
       7A     -1.356568     8A     -1.266514     9A     -1.264259
      10A     -0.945159    11A     -0.784103    12A     -0.669258
      13A     -0.633544    14A     -0.632776    15A     -0.502441
      16A     -0.502421    17A     -0.469337    18A     -0.468379
      19A     -0.464303    20A     -0.443055    21A     -0.400404
      22A     -0.380321    23A     -0.380247

  @DF-RKS Final Energy:  -430.45970651195330

   => Energetics <=

    Nuclear Repulsion Energy =            231.0271025874089332
    One-Electron Energy =               -1052.4668619595113341
    Two-Electron Energy =                 430.6653587333751148
    DFT Exchange-Correlation Energy =     -39.6853058732260990
    Empirical Dispersion Energy =           0.0000000000000000
    VV10 Nonlocal Energy =                  0.0000000000000000
    Total Energy =                       -430.4597065119532999

  Dipole Moment: [D]
     X:    -1.5175      Y:     0.0132      Z:    -0.0229     Total:     1.5178

*** Psi4 exiting successfully. Buy a developer a beer!
