                               Psi4 1.4a2.dev629

  ==> Input File <==

--------------------------------------------------------------------------
import os
memory 14 GB

molecule {
 N    4.4365303081    0.0037264705    0.0021546400
 X    2.2380672400    1.0000000000   -0.0000000000
 C    2.2393470868   -0.0048245390   -0.0027931008
 X    2.2380672400   -0.0000000000    1.0000000000
 C   -0.5799009441   -0.0017413048   -0.0010104263
 F   -1.4395509358    1.1868754669   -2.0416454548
 F   -1.4402995353   -2.3657616097    0.0035229545
 F   -1.4388125998    1.1817255161    2.0397713875
units bohr
}

basis {

assign 6-31g_2dfp_

[ 6-31g_2dfp_ ]
spherical

!----------------------------------------------------------------------
! Basis Set Exchange
! Version v0.8.13
! https://www.basissetexchange.org
!----------------------------------------------------------------------
!   Basis set: 6-31G(2df,p)
! Description: 6-31G(2df,p)
!        Role: orbital
!     Version: 0  (Data from the original Basis Set Exchange)
!----------------------------------------------------------------------

****
F     0
S    6   1.00
   7001.7130900              0.0018196169
   1051.3660900              0.0139160796
    239.2856900              0.0684053245
     67.3974453              0.233185760
     21.5199573              0.471267439
      7.40310130             0.356618546
SP   3   1.00
     20.8479528             -0.108506975            0.0716287243
      4.80830834            -0.146451658            0.3459121030
      1.34406986             1.128688580            0.7224699570
SP   1   1.00
      0.358151393            1.0000000              1.0000000
D    1   1.00
      3.5000000              1.0000000
D    1   1.00
      0.8750000              1.0000000
F    1   1.00
      1.8500000              1.0000000
****
C     0
S    6   1.00
   3047.5249000              0.0018347
    457.3695100              0.0140373
    103.9486900              0.0688426
     29.2101550              0.2321844
      9.2866630              0.4679413
      3.1639270              0.3623120
SP   3   1.00
      7.8682724             -0.1193324              0.0689991
      1.8812885             -0.1608542              0.3164240
      0.5442493              1.1434564              0.7443083
SP   1   1.00
      0.1687144              1.0000000              1.0000000
D    1   1.00
      1.2520000              1.0000000
D    1   1.00
      0.3130000              1.0000000
F    1   1.00
      0.8000000              1.0000000
****
N     0
S    6   1.00
   4173.5110000              0.0018348
    627.4579000              0.0139950
    142.9021000              0.0685870
     40.2343300              0.2322410
     12.8202100              0.4690700
      4.3904370              0.3604550
SP   3   1.00
     11.6263580             -0.1149610              0.0675800
      2.7162800             -0.1691180              0.3239070
      0.7722180              1.1458520              0.7408950
SP   1   1.00
      0.2120313              1.0000000              1.0000000
D    1   1.00
      1.8260000              1.0000000
D    1   1.00
      0.4565000              1.0000000
F    1   1.00
      1.0000000              1.0000000
****
}

set {
opt_type min
reference rhf
freeze_core true
e_convergence 10
d_convergence 10
ensure_bt_convergence true
dft_spherical_points 590
dft_radial_points 99
}

e = energy('b3lyp')

print_out('Grab this energy {0}'.format(e))
--------------------------------------------------------------------------

    Molecular point group: c1

    Geometry (in Bohr), charge = 0, multiplicity = 1:

       Center              X                  Y                   Z               Mass
    ------------   -----------------  -----------------  -----------------  -----------------
         N            4.436628059396     0.003438723456     0.001987737174    14.003074004430
         C            2.239444838096    -0.005112286044    -0.002960003626    12.000000000000
         C           -0.579803192804    -0.002029051844    -0.001177329126    12.000000000000
         F           -1.439453184504     1.186587719856    -2.041812357626    18.998403162730
         F           -1.440201784004    -2.366049356744     0.003356051674    18.998403162730
         F           -1.438714848504     1.181437769056     2.039604484674    18.998403162730

  Charge       = 0
  Multiplicity = 1
  Basis Set: ANONYMOUSF9E819B0
    Blend: 6-31G_2DFP_
  Basis Set: (ANONYMOUSF9E819B0 AUX)
    Blend: DEF2-UNIVERSAL-JKFIT

    Orbital Energies [Eh]
    ---------------------

    Doubly Occupied:

       1A    -24.765077     2A    -24.764973     3A    -24.764873
       4A    -14.390254     5A    -10.498126     6A    -10.265847
       7A     -1.356541     8A     -1.265398     9A     -1.265393
      10A     -0.945160    11A     -0.784101    12A     -0.669243
      13A     -0.633263    14A     -0.633049    15A     -0.502693
      16A     -0.502151    17A     -0.468997    18A     -0.468701
      19A     -0.464334    20A     -0.443069    21A     -0.400404
      22A     -0.380305    23A     -0.380267

  @DF-RKS Final Energy:  -430.45970574576990

   => Energetics <=

    Nuclear Repulsion Energy =            231.0271735809009783
    One-Electron Energy =               -1052.4670590734097004
    Two-Electron Energy =                 430.6654798408400211
    DFT Exchange-Correlation Energy =     -39.6853000941012581
    Empirical Dispersion Energy =           0.0000000000000000
    VV10 Nonlocal Energy =                  0.0000000000000000
    Total Energy =                       -430.4597057457698952

  Dipole Moment: [D]
     X:    -1.5175      Y:    -0.0037      Z:    -0.0021     Total:     1.5175

*** Psi4 exiting successfully. Buy a developer a beer!
