                               Psi4 1.4a2.dev629

  ==> Input File <==

--------------------------------------------------------------------------
import os
memory 14 GB

molecule {
 N    4.4419091598    0.0088647390    0.0051203798
 X    2.2380672400    1.0000000000    0.0000000000
 C    2.2463515600   -0.0008017937   -0.0004583820
 X    2.2380672400   -0.0000000000    1.0000000000
 C   -0.5721801071   -0.0027261556   -0.0015645633
 F   -1.4462651490    1.1706386770   -2.0394231526
 F   -1.4594789000   -2.3499346557   -0.0029495767
 F   -1.4330231837    1.1739591890    2.0392752948
units bohr
}

basis {

assign 6-31g_2dfp_

[ 6-31g_2dfp_ ]
spherical

!----------------------------------------------------------------------
! Basis Set Exchange
! Version v0.8.13
! https://www.basissetexchange.org
!----------------------------------------------------------------------
!   Basis set: 6-31G(2df,p)
! Description: 6-31G(2df,p)
!        Role: orbital
!     Version: 0  (Data from the original Basis Set Exchange)
!----------------------------------------------------------------------

****
F     0
S    6   1.00
   7001.7130900              0.0018196169
   1051.3660900              0.0139160796
    239.2856900              0.0684053245
     67.3974453              0.233185760
     21.5199573              0.471267439
      7.40310130             0.356618546
SP   3   1.00
     20.8479528             -0.108506975            0.0716287243
      4.80830834            -0.146451658            0.3459121030
      1.34406986             1.128688580            0.7224699570
SP   1   1.00
      0.358151393            1.0000000              1.0000000
D    1   1.00
      3.5000000              1.0000000
D    1   1.00
      0.8750000              1.0000000
F    1   1.00
      1.8500000              1.0000000
****
C     0
S    6   1.00
   3047.5249000              0.0018347
    457.3695100              0.0140373
    103.9486900              0.0688426
     29.2101550              0.2321844
      9.2866630              0.4679413
      3.1639270              0.3623120
SP   3   1.00
      7.8682724             -0.1193324              0.0689991
      1.8812885             -0.1608542              0.3164240
      0.5442493              1.1434564              0.7443083
SP   1   1.00
      0.1687144              1.0000000              1.0000000
D    1   1.00
      1.2520000              1.0000000
D    1   1.00
      0.3130000              1.0000000
F    1   1.00
      0.8000000              1.0000000
****
N     0
S    6   1.00
   4173.5110000              0.0018348
    627.4579000              0.0139950
    142.9021000              0.0685870
     40.2343300              0.2322410
     12.8202100              0.4690700
      4.3904370              0.3604550
SP   3   1.00
     11.6263580             -0.1149610              0.0675800
      2.7162800             -0.1691180              0.3239070
      0.7722180              1.1458520              0.7408950
SP   1   1.00
      0.2120313              1.0000000              1.0000000
D    1   1.00
      1.8260000              1.0000000
D    1   1.00
      0.4565000              1.0000000
F    1   1.00
      1.0000000              1.0000000
****
}

set {
opt_type min
reference rhf
freeze_core true
e_convergence 10
d_convergence 10
ensure_bt_convergence true
dft_spherical_points 590
dft_radial_points 99
}

e = energy('b3lyp')

print_out('Grab this energy {0}'.format(e))
--------------------------------------------------------------------------

    Molecular point group: c1

    Geometry (in Bohr), charge = 0, multiplicity = 1:

       Center              X                  Y                   Z               Mass
    ------------   -----------------  -----------------  -----------------  -----------------
         N            4.443374544126     0.009070977228     0.005240598769    14.003074004430
         C            2.247816944326    -0.000595555472    -0.000338163031    12.000000000000
         C           -0.570714722774    -0.002519917372    -0.001444344331    12.000000000000
         F           -1.444799764674     1.170844915228    -2.039302933631    18.998403162730
         F           -1.458013515674    -2.349728417472    -0.002829357731    18.998403162730
         F           -1.431557799374     1.174165427228     2.039395513769    18.998403162730

  Charge       = 0
  Multiplicity = 1
  Basis Set: ANONYMOUSB39168B2
    Blend: 6-31G_2DFP_
  Basis Set: (ANONYMOUSB39168B2 AUX)
    Blend: DEF2-UNIVERSAL-JKFIT

    Orbital Energies [Eh]
    ---------------------

    Doubly Occupied:

       1A    -24.764295     2A    -24.764115     3A    -24.763943
       4A    -14.390773     5A    -10.497361     6A    -10.266339
       7A     -1.357996     8A     -1.265607     9A     -1.264759
      10A     -0.946110    11A     -0.784099    12A     -0.670013
      13A     -0.633383    14A     -0.632997    15A     -0.502723
      16A     -0.502191    17A     -0.468008    18A     -0.467440
      19A     -0.465219    20A     -0.441977    21A     -0.401010
      22A     -0.381195    23A     -0.381037

  @DF-RKS Final Energy:  -430.45964720815931

   => Energetics <=

    Nuclear Repulsion Energy =            231.3292422820418608
    One-Electron Energy =               -1053.0672023208580868
    Two-Electron Energy =                 430.9682580229136306
    DFT Exchange-Correlation Energy =     -39.6899451922566655
    Empirical Dispersion Energy =           0.0000000000000000
    VV10 Nonlocal Energy =                  0.0000000000000000
    Total Energy =                       -430.4596472081593106

  Dipole Moment: [D]
     X:    -1.4798      Y:    -0.0055      Z:    -0.0031     Total:     1.4799

*** Psi4 exiting successfully. Buy a developer a beer!
