                               Psi4 1.4a2.dev629

  ==> Input File <==

--------------------------------------------------------------------------
import os
memory 14 GB

molecule {
 N    4.4311890968    0.0078544969   -0.0050163096
 X    2.2380672400    1.0000000000   -0.0000000000
 C    2.2380638542   -0.0044449033   -0.0034225367
 X    2.2380672400   -0.0000000000    1.0000000000
 C   -0.5761640105   -0.0018989337   -0.0007450615
 F   -1.4241574639    1.1866348697   -2.0412560546
 F   -1.4465492695   -2.3579474410    0.0127798156
 F   -1.4450688271    1.1698019115    2.0376601469
units bohr
}

basis {

assign 6-31g_2dfp_

[ 6-31g_2dfp_ ]
spherical

!----------------------------------------------------------------------
! Basis Set Exchange
! Version v0.8.13
! https://www.basissetexchange.org
!----------------------------------------------------------------------
!   Basis set: 6-31G(2df,p)
! Description: 6-31G(2df,p)
!        Role: orbital
!     Version: 0  (Data from the original Basis Set Exchange)
!----------------------------------------------------------------------

****
F     0
S    6   1.00
   7001.7130900              0.0018196169
   1051.3660900              0.0139160796
    239.2856900              0.0684053245
     67.3974453              0.233185760
     21.5199573              0.471267439
      7.40310130             0.356618546
SP   3   1.00
     20.8479528             -0.108506975            0.0716287243
      4.80830834            -0.146451658            0.3459121030
      1.34406986             1.128688580            0.7224699570
SP   1   1.00
      0.358151393            1.0000000              1.0000000
D    1   1.00
      3.5000000              1.0000000
D    1   1.00
      0.8750000              1.0000000
F    1   1.00
      1.8500000              1.0000000
****
C     0
S    6   1.00
   3047.5249000              0.0018347
    457.3695100              0.0140373
    103.9486900              0.0688426
     29.2101550              0.2321844
      9.2866630              0.4679413
      3.1639270              0.3623120
SP   3   1.00
      7.8682724             -0.1193324              0.0689991
      1.8812885             -0.1608542              0.3164240
      0.5442493              1.1434564              0.7443083
SP   1   1.00
      0.1687144              1.0000000              1.0000000
D    1   1.00
      1.2520000              1.0000000
D    1   1.00
      0.3130000              1.0000000
F    1   1.00
      0.8000000              1.0000000
****
N     0
S    6   1.00
   4173.5110000              0.0018348
    627.4579000              0.0139950
    142.9021000              0.0685870
     40.2343300              0.2322410
     12.8202100              0.4690700
      4.3904370              0.3604550
SP   3   1.00
     11.6263580             -0.1149610              0.0675800
      2.7162800             -0.1691180              0.3239070
      0.7722180              1.1458520              0.7408950
SP   1   1.00
      0.2120313              1.0000000              1.0000000
D    1   1.00
      1.8260000              1.0000000
D    1   1.00
      0.4565000              1.0000000
F    1   1.00
      1.0000000              1.0000000
****
}

set {
opt_type min
reference rhf
freeze_core true
e_convergence 10
d_convergence 10
ensure_bt_convergence true
dft_spherical_points 590
dft_radial_points 99
}

e = energy('b3lyp')

print_out('Grab this energy {0}'.format(e))
--------------------------------------------------------------------------

    Molecular point group: c1

    Geometry (in Bohr), charge = 0, multiplicity = 1:

       Center              X                  Y                   Z               Mass
    ------------   -----------------  -----------------  -----------------  -----------------
         N            4.431186750270     0.007800170303    -0.005587105723    14.003074004430
         C            2.238061507670    -0.004499229897    -0.003993332823    12.000000000000
         C           -0.576166357030    -0.001953260297    -0.001315857623    12.000000000000
         F           -1.424159810430     1.186580543103    -2.041826850723    18.998403162730
         F           -1.446551616030    -2.358001767597     0.012209019477    18.998403162730
         F           -1.445071173630     1.169747584903     2.037089350777    18.998403162730

  Charge       = 0
  Multiplicity = 1
  Basis Set: ANONYMOUS8C30E9E3
    Blend: 6-31G_2DFP_
  Basis Set: (ANONYMOUS8C30E9E3 AUX)
    Blend: DEF2-UNIVERSAL-JKFIT

    Orbital Energies [Eh]
    ---------------------

    Doubly Occupied:

       1A    -24.765113     2A    -24.764517     3A    -24.764311
       4A    -14.389808     5A    -10.497344     6A    -10.265177
       7A     -1.357873     8A     -1.266494     9A     -1.265103
      10A     -0.946068    11A     -0.784495    12A     -0.670023
      13A     -0.634004    14A     -0.633246    15A     -0.503225
      16A     -0.502189    17A     -0.469207    18A     -0.468180
      19A     -0.464451    20A     -0.442729    21A     -0.400403
      22A     -0.380914    23A     -0.380756

  @DF-RKS Final Energy:  -430.45974516491810

   => Energetics <=

    Nuclear Repulsion Energy =            231.4164307071822293
    One-Electron Energy =               -1053.2346962890280793
    Two-Electron Energy =                 431.0499058458614741
    DFT Exchange-Correlation Energy =     -39.6913854289337280
    Empirical Dispersion Energy =           0.0000000000000000
    VV10 Nonlocal Energy =                  0.0000000000000000
    Total Energy =                       -430.4597451649181039

  Dipole Moment: [D]
     X:    -1.5103      Y:    -0.0026      Z:    -0.0041     Total:     1.5103

*** Psi4 exiting successfully. Buy a developer a beer!
