                               Psi4 1.4a2.dev629

  ==> Input File <==

--------------------------------------------------------------------------
import os
memory 14 GB

molecule {
 N    4.4312125383   -0.0025209954    0.0043283818
 X    2.2380672400    1.0000000000   -0.0000000000
 C    2.2380546841   -0.0041298626    0.0071890726
 X    2.2380672400    0.0000000000    1.0000000000
 C   -0.5761630808    0.0000557951   -0.0000894820
 F   -1.4555147480    1.1773598853   -2.0392488955
 F   -1.4301275457   -2.3569504050   -0.0089048429
 F   -1.4301484679    1.1861855827    2.0367257661
units bohr
}

basis {

assign 6-31g_2dfp_

[ 6-31g_2dfp_ ]
spherical

!----------------------------------------------------------------------
! Basis Set Exchange
! Version v0.8.13
! https://www.basissetexchange.org
!----------------------------------------------------------------------
!   Basis set: 6-31G(2df,p)
! Description: 6-31G(2df,p)
!        Role: orbital
!     Version: 0  (Data from the original Basis Set Exchange)
!----------------------------------------------------------------------

****
F     0
S    6   1.00
   7001.7130900              0.0018196169
   1051.3660900              0.0139160796
    239.2856900              0.0684053245
     67.3974453              0.233185760
     21.5199573              0.471267439
      7.40310130             0.356618546
SP   3   1.00
     20.8479528             -0.108506975            0.0716287243
      4.80830834            -0.146451658            0.3459121030
      1.34406986             1.128688580            0.7224699570
SP   1   1.00
      0.358151393            1.0000000              1.0000000
D    1   1.00
      3.5000000              1.0000000
D    1   1.00
      0.8750000              1.0000000
F    1   1.00
      1.8500000              1.0000000
****
C     0
S    6   1.00
   3047.5249000              0.0018347
    457.3695100              0.0140373
    103.9486900              0.0688426
     29.2101550              0.2321844
      9.2866630              0.4679413
      3.1639270              0.3623120
SP   3   1.00
      7.8682724             -0.1193324              0.0689991
      1.8812885             -0.1608542              0.3164240
      0.5442493              1.1434564              0.7443083
SP   1   1.00
      0.1687144              1.0000000              1.0000000
D    1   1.00
      1.2520000              1.0000000
D    1   1.00
      0.3130000              1.0000000
F    1   1.00
      0.8000000              1.0000000
****
N     0
S    6   1.00
   4173.5110000              0.0018348
    627.4579000              0.0139950
    142.9021000              0.0685870
     40.2343300              0.2322410
     12.8202100              0.4690700
      4.3904370              0.3604550
SP   3   1.00
     11.6263580             -0.1149610              0.0675800
      2.7162800             -0.1691180              0.3239070
      0.7722180              1.1458520              0.7408950
SP   1   1.00
      0.2120313              1.0000000              1.0000000
D    1   1.00
      1.8260000              1.0000000
D    1   1.00
      0.4565000              1.0000000
F    1   1.00
      1.0000000              1.0000000
****
}

set {
opt_type min
reference rhf
freeze_core true
e_convergence 10
d_convergence 10
ensure_bt_convergence true
dft_spherical_points 590
dft_radial_points 99
}

e = energy('b3lyp')

print_out('Grab this energy {0}'.format(e))
--------------------------------------------------------------------------

    Molecular point group: c1

    Geometry (in Bohr), charge = 0, multiplicity = 1:

       Center              X                  Y                   Z               Mass
    ------------   -----------------  -----------------  -----------------  -----------------
         N            4.431210817344    -0.002953689225     0.005079000491    14.003074004430
         C            2.238052963144    -0.004562556425     0.007939691291    12.000000000000
         C           -0.576164801756    -0.000376898725     0.000661136691    12.000000000000
         F           -1.455516468956     1.176927191475    -2.038498276809    18.998403162730
         F           -1.430129266656    -2.357383098825    -0.008154224209    18.998403162730
         F           -1.430150188856     1.185752888875     2.037476384791    18.998403162730

  Charge       = 0
  Multiplicity = 1
  Basis Set: ANONYMOUS392E6B8A
    Blend: 6-31G_2DFP_
  Basis Set: (ANONYMOUS392E6B8A AUX)
    Blend: DEF2-UNIVERSAL-JKFIT

    Orbital Energies [Eh]
    ---------------------

    Doubly Occupied:

       1A    -24.765120     2A    -24.765103     3A    -24.763728
       4A    -14.389806     5A    -10.497344     6A    -10.265175
       7A     -1.357876     8A     -1.267042     9A     -1.264561
      10A     -0.946066    11A     -0.784498    12A     -0.670025
      13A     -0.634131    14A     -0.633130    15A     -0.503141
      16A     -0.502280    17A     -0.469385    18A     -0.468002
      19A     -0.464454    20A     -0.442725    21A     -0.400403
      22A     -0.380927    23A     -0.380738

  @DF-RKS Final Energy:  -430.45974244491651

   => Energetics <=

    Nuclear Repulsion Energy =            231.4161847214137993
    One-Electron Energy =               -1053.2341479007952785
    Two-Electron Energy =                 431.0496058400872244
    DFT Exchange-Correlation Energy =     -39.6913851056222953
    Empirical Dispersion Energy =           0.0000000000000000
    VV10 Nonlocal Energy =                  0.0000000000000000
    Total Energy =                       -430.4597424449165146

  Dipole Moment: [D]
     X:    -1.5103      Y:    -0.0085      Z:     0.0148     Total:     1.5104

*** Psi4 exiting successfully. Buy a developer a beer!
