                               Psi4 1.4a2.dev629

  ==> Input File <==

--------------------------------------------------------------------------
import os
memory 14 GB

molecule {
 N    4.4330525280   -0.0002638797   -0.0001485947
 X    2.2380672400    1.0000000000   -0.0000000000
 C    2.2339903943    0.0011176870    0.0006474090
 X    2.2380672400    0.0000000000    1.0000000000
 C   -0.5729650294   -0.0037296000   -0.0021514518
 F   -1.4389291972    1.1791024197   -2.0404554938
 F   -1.4387358620   -2.3555166586    0.0004425614
 F   -1.4390994536    1.1792900316    2.0416655699
units bohr
}

basis {

assign 6-31g_2dfp_

[ 6-31g_2dfp_ ]
spherical

!----------------------------------------------------------------------
! Basis Set Exchange
! Version v0.8.13
! https://www.basissetexchange.org
!----------------------------------------------------------------------
!   Basis set: 6-31G(2df,p)
! Description: 6-31G(2df,p)
!        Role: orbital
!     Version: 0  (Data from the original Basis Set Exchange)
!----------------------------------------------------------------------

****
F     0
S    6   1.00
   7001.7130900              0.0018196169
   1051.3660900              0.0139160796
    239.2856900              0.0684053245
     67.3974453              0.233185760
     21.5199573              0.471267439
      7.40310130             0.356618546
SP   3   1.00
     20.8479528             -0.108506975            0.0716287243
      4.80830834            -0.146451658            0.3459121030
      1.34406986             1.128688580            0.7224699570
SP   1   1.00
      0.358151393            1.0000000              1.0000000
D    1   1.00
      3.5000000              1.0000000
D    1   1.00
      0.8750000              1.0000000
F    1   1.00
      1.8500000              1.0000000
****
C     0
S    6   1.00
   3047.5249000              0.0018347
    457.3695100              0.0140373
    103.9486900              0.0688426
     29.2101550              0.2321844
      9.2866630              0.4679413
      3.1639270              0.3623120
SP   3   1.00
      7.8682724             -0.1193324              0.0689991
      1.8812885             -0.1608542              0.3164240
      0.5442493              1.1434564              0.7443083
SP   1   1.00
      0.1687144              1.0000000              1.0000000
D    1   1.00
      1.2520000              1.0000000
D    1   1.00
      0.3130000              1.0000000
F    1   1.00
      0.8000000              1.0000000
****
N     0
S    6   1.00
   4173.5110000              0.0018348
    627.4579000              0.0139950
    142.9021000              0.0685870
     40.2343300              0.2322410
     12.8202100              0.4690700
      4.3904370              0.3604550
SP   3   1.00
     11.6263580             -0.1149610              0.0675800
      2.7162800             -0.1691180              0.3239070
      0.7722180              1.1458520              0.7408950
SP   1   1.00
      0.2120313              1.0000000              1.0000000
D    1   1.00
      1.8260000              1.0000000
D    1   1.00
      0.4565000              1.0000000
F    1   1.00
      1.0000000              1.0000000
****
}

set {
opt_type min
reference rhf
freeze_core true
e_convergence 10
d_convergence 10
ensure_bt_convergence true
dft_spherical_points 590
dft_radial_points 99
}

e = energy('b3lyp')

print_out('Grab this energy {0}'.format(e))
--------------------------------------------------------------------------

    Molecular point group: c1

    Geometry (in Bohr), charge = 0, multiplicity = 1:

       Center              X                  Y                   Z               Mass
    ------------   -----------------  -----------------  -----------------  -----------------
         N            4.433083745183    -0.000470171703    -0.000267209236    14.003074004430
         C            2.234021611483     0.000911394997     0.000528794464    12.000000000000
         C           -0.572933812217    -0.003935892003    -0.002270066336    12.000000000000
         F           -1.438897980017     1.178896127697    -2.040574108336    18.998403162730
         F           -1.438704644817    -2.355722950603     0.000323946864    18.998403162730
         F           -1.439068236417     1.179083739597     2.041546955364    18.998403162730

  Charge       = 0
  Multiplicity = 1
  Basis Set: ANONYMOUS871E3341
    Blend: 6-31G_2DFP_
  Basis Set: (ANONYMOUS871E3341 AUX)
    Blend: DEF2-UNIVERSAL-JKFIT

    Orbital Energies [Eh]
    ---------------------

    Doubly Occupied:

       1A    -24.765348     2A    -24.764371     3A    -24.763397
       4A    -14.391147     5A    -10.497040     6A    -10.266222
       7A     -1.357283     8A     -1.266229     9A     -1.264258
      10A     -0.945471    11A     -0.785358    12A     -0.670047
      13A     -0.633567    14A     -0.632881    15A     -0.502409
      16A     -0.502380    17A     -0.468721    18A     -0.467886
      19A     -0.464717    20A     -0.442430    21A     -0.401089
      22A     -0.380589    23A     -0.380522

  @DF-RKS Final Energy:  -430.45966035782948

   => Energetics <=

    Nuclear Repulsion Energy =            231.3632836065330309
    One-Electron Energy =               -1053.1344116294928881
    Two-Electron Energy =                 431.0004523991147494
    DFT Exchange-Correlation Energy =     -39.6889847339843769
    Empirical Dispersion Energy =           0.0000000000000000
    VV10 Nonlocal Energy =                  0.0000000000000000
    Total Energy =                       -430.4596603578294776

  Dipole Moment: [D]
     X:    -1.4881      Y:    -0.0198      Z:    -0.0114     Total:     1.4883

*** Psi4 exiting successfully. Buy a developer a beer!
