                               Psi4 1.4a2.dev629

  ==> Input File <==

--------------------------------------------------------------------------
import os
memory 14 GB

molecule {
 N    4.4312222246    0.0004758072   -0.0002415344
 X    2.2380672400    1.0000000000    0.0000000000
 C    2.2380633432   -0.0018683190    0.0006365863
 X    2.2380672400   -0.0000000000    1.0000000000
 C   -0.5761544850    0.0060980212   -0.0019474288
 F   -1.4382531204    1.1763221531   -2.0392139081
 F   -1.4389405880   -2.3584051827   -0.0000918576
 F   -1.4386239944    1.1773775203    2.0408581425
units bohr
}

basis {

assign 6-31g_2dfp_

[ 6-31g_2dfp_ ]
spherical

!----------------------------------------------------------------------
! Basis Set Exchange
! Version v0.8.13
! https://www.basissetexchange.org
!----------------------------------------------------------------------
!   Basis set: 6-31G(2df,p)
! Description: 6-31G(2df,p)
!        Role: orbital
!     Version: 0  (Data from the original Basis Set Exchange)
!----------------------------------------------------------------------

****
F     0
S    6   1.00
   7001.7130900              0.0018196169
   1051.3660900              0.0139160796
    239.2856900              0.0684053245
     67.3974453              0.233185760
     21.5199573              0.471267439
      7.40310130             0.356618546
SP   3   1.00
     20.8479528             -0.108506975            0.0716287243
      4.80830834            -0.146451658            0.3459121030
      1.34406986             1.128688580            0.7224699570
SP   1   1.00
      0.358151393            1.0000000              1.0000000
D    1   1.00
      3.5000000              1.0000000
D    1   1.00
      0.8750000              1.0000000
F    1   1.00
      1.8500000              1.0000000
****
C     0
S    6   1.00
   3047.5249000              0.0018347
    457.3695100              0.0140373
    103.9486900              0.0688426
     29.2101550              0.2321844
      9.2866630              0.4679413
      3.1639270              0.3623120
SP   3   1.00
      7.8682724             -0.1193324              0.0689991
      1.8812885             -0.1608542              0.3164240
      0.5442493              1.1434564              0.7443083
SP   1   1.00
      0.1687144              1.0000000              1.0000000
D    1   1.00
      1.2520000              1.0000000
D    1   1.00
      0.3130000              1.0000000
F    1   1.00
      0.8000000              1.0000000
****
N     0
S    6   1.00
   4173.5110000              0.0018348
    627.4579000              0.0139950
    142.9021000              0.0685870
     40.2343300              0.2322410
     12.8202100              0.4690700
      4.3904370              0.3604550
SP   3   1.00
     11.6263580             -0.1149610              0.0675800
      2.7162800             -0.1691180              0.3239070
      0.7722180              1.1458520              0.7408950
SP   1   1.00
      0.2120313              1.0000000              1.0000000
D    1   1.00
      1.8260000              1.0000000
D    1   1.00
      0.4565000              1.0000000
F    1   1.00
      1.0000000              1.0000000
****
}

set {
opt_type min
reference rhf
freeze_core true
e_convergence 10
d_convergence 10
ensure_bt_convergence true
dft_spherical_points 590
dft_radial_points 99
}

e = energy('b3lyp')

print_out('Grab this energy {0}'.format(e))
--------------------------------------------------------------------------

    Molecular point group: c1

    Geometry (in Bohr), charge = 0, multiplicity = 1:

       Center              X                  Y                   Z               Mass
    ------------   -----------------  -----------------  -----------------  -----------------
         N            4.431222284128     0.000812423524    -0.000350803177    14.003074004430
         C            2.238063402728    -0.001531702676     0.000527317523    12.000000000000
         C           -0.576154425472     0.006434637524    -0.002056697577    12.000000000000
         F           -1.438253060872     1.176658769424    -2.039323176877    18.998403162730
         F           -1.438940528472    -2.358068566376    -0.000201126377    18.998403162730
         F           -1.438623934872     1.177714136624     2.040748873723    18.998403162730

  Charge       = 0
  Multiplicity = 1
  Basis Set: ANONYMOUS58DB5777
    Blend: 6-31G_2DFP_
  Basis Set: (ANONYMOUS58DB5777 AUX)
    Blend: DEF2-UNIVERSAL-JKFIT

    Orbital Energies [Eh]
    ---------------------

    Doubly Occupied:

       1A    -24.765960     2A    -24.764972     3A    -24.763019
       4A    -14.389809     5A    -10.497342     6A    -10.265178
       7A     -1.357920     8A     -1.267305     9A     -1.264259
      10A     -0.946069    11A     -0.784498    12A     -0.670049
      13A     -0.634155    14A     -0.633112    15A     -0.502739
      16A     -0.502701    17A     -0.469330    18A     -0.468094
      19A     -0.464382    20A     -0.442722    21A     -0.400405
      22A     -0.380887    23A     -0.380783

  @DF-RKS Final Energy:  -430.45976221021272

   => Energetics <=

    Nuclear Repulsion Energy =            231.4158723241741313
    One-Electron Energy =               -1053.2334934990090005
    Two-Electron Energy =                 431.0492491057392499
    DFT Exchange-Correlation Energy =     -39.6913901411171537
    Empirical Dispersion Energy =           0.0000000000000000
    VV10 Nonlocal Energy =                  0.0000000000000000
    Total Energy =                       -430.4597622102127161

  Dipole Moment: [D]
     X:    -1.5102      Y:     0.0330      Z:    -0.0114     Total:     1.5106

*** Psi4 exiting successfully. Buy a developer a beer!
