                               Psi4 1.4a2.dev629

  ==> Input File <==

--------------------------------------------------------------------------
import os
memory 14 GB

molecule {
 N    4.4204858243   -0.0023117394   -0.0013274822
 X    2.2380672400    1.0000000000   -0.0000000000
 C    2.2297706843    0.0057013931    0.0032860645
 X    2.2380672400    0.0000000000    1.0000000000
 C   -0.5801507138    0.0004085253    0.0002356689
 F   -1.4309360436    1.1816689326   -2.0439000846
 F   -1.4331221363   -2.3646560048    0.0007004344
 F   -1.4287342348    1.1791888931    2.0410053990
units bohr
}

basis {

assign 6-31g_2dfp_

[ 6-31g_2dfp_ ]
spherical

!----------------------------------------------------------------------
! Basis Set Exchange
! Version v0.8.13
! https://www.basissetexchange.org
!----------------------------------------------------------------------
!   Basis set: 6-31G(2df,p)
! Description: 6-31G(2df,p)
!        Role: orbital
!     Version: 0  (Data from the original Basis Set Exchange)
!----------------------------------------------------------------------

****
F     0
S    6   1.00
   7001.7130900              0.0018196169
   1051.3660900              0.0139160796
    239.2856900              0.0684053245
     67.3974453              0.233185760
     21.5199573              0.471267439
      7.40310130             0.356618546
SP   3   1.00
     20.8479528             -0.108506975            0.0716287243
      4.80830834            -0.146451658            0.3459121030
      1.34406986             1.128688580            0.7224699570
SP   1   1.00
      0.358151393            1.0000000              1.0000000
D    1   1.00
      3.5000000              1.0000000
D    1   1.00
      0.8750000              1.0000000
F    1   1.00
      1.8500000              1.0000000
****
C     0
S    6   1.00
   3047.5249000              0.0018347
    457.3695100              0.0140373
    103.9486900              0.0688426
     29.2101550              0.2321844
      9.2866630              0.4679413
      3.1639270              0.3623120
SP   3   1.00
      7.8682724             -0.1193324              0.0689991
      1.8812885             -0.1608542              0.3164240
      0.5442493              1.1434564              0.7443083
SP   1   1.00
      0.1687144              1.0000000              1.0000000
D    1   1.00
      1.2520000              1.0000000
D    1   1.00
      0.3130000              1.0000000
F    1   1.00
      0.8000000              1.0000000
****
N     0
S    6   1.00
   4173.5110000              0.0018348
    627.4579000              0.0139950
    142.9021000              0.0685870
     40.2343300              0.2322410
     12.8202100              0.4690700
      4.3904370              0.3604550
SP   3   1.00
     11.6263580             -0.1149610              0.0675800
      2.7162800             -0.1691180              0.3239070
      0.7722180              1.1458520              0.7408950
SP   1   1.00
      0.2120313              1.0000000              1.0000000
D    1   1.00
      1.8260000              1.0000000
D    1   1.00
      0.4565000              1.0000000
F    1   1.00
      1.0000000              1.0000000
****
}

set {
opt_type min
reference rhf
freeze_core true
e_convergence 10
d_convergence 10
ensure_bt_convergence true
dft_spherical_points 590
dft_radial_points 99
}

e = energy('b3lyp')

print_out('Grab this energy {0}'.format(e))
--------------------------------------------------------------------------

    Molecular point group: c1

    Geometry (in Bohr), charge = 0, multiplicity = 1:

       Center              X                  Y                   Z               Mass
    ------------   -----------------  -----------------  -----------------  -----------------
         N            4.419016020997    -0.001983188464    -0.001137844041    14.003074004430
         C            2.228300880997     0.006029944036     0.003475702659    12.000000000000
         C           -0.581620517103     0.000737076236     0.000425307059    12.000000000000
         F           -1.432405846903     1.181997483536    -2.043710446441    18.998403162730
         F           -1.434591939603    -2.364327453864     0.000890072559    18.998403162730
         F           -1.430204038103     1.179517444036     2.041195037159    18.998403162730

  Charge       = 0
  Multiplicity = 1
  Basis Set: ANONYMOUS3531F5EC
    Blend: 6-31G_2DFP_
  Basis Set: (ANONYMOUS3531F5EC AUX)
    Blend: DEF2-UNIVERSAL-JKFIT

    Orbital Energies [Eh]
    ---------------------

    Doubly Occupied:

       1A    -24.765712     2A    -24.765175     3A    -24.764641
       4A    -14.388838     5A    -10.497322     6A    -10.264012
       7A     -1.357760     8A     -1.267082     9A     -1.265738
      10A     -0.946022    11A     -0.784891    12A     -0.670035
      13A     -0.634228    14A     -0.633900    15A     -0.503012
      16A     -0.502896    17A     -0.469855    18A     -0.469425
      19A     -0.463683    20A     -0.443516    21A     -0.399794
      22A     -0.380563    23A     -0.380538

  @DF-RKS Final Energy:  -430.45980882922436

   => Energetics <=

    Nuclear Repulsion Energy =            231.5051341498596287
    One-Electron Energy =               -1053.4052119204920928
    Two-Electron Energy =                 431.1331043026680732
    DFT Exchange-Correlation Energy =     -39.6928353612599452
    Empirical Dispersion Energy =           0.0000000000000000
    VV10 Nonlocal Energy =                  0.0000000000000000
    Total Energy =                       -430.4598088292243574

  Dipole Moment: [D]
     X:    -1.5407      Y:     0.0150      Z:     0.0086     Total:     1.5408

*** Psi4 exiting successfully. Buy a developer a beer!
