                               Psi4 1.4a2.dev629

  ==> Input File <==

--------------------------------------------------------------------------
import os
memory 14 GB

molecule {
 N    4.4365509451    0.0002561515    0.0001516499
 X    2.2380672400    1.0000000000    0.0000000000
 C    2.2393460969   -0.0011296477   -0.0006500811
 X    2.2380672400   -0.0000000000    1.0000000000
 C   -0.5798985752    0.0037405042    0.0021614139
 F   -1.4395694030    1.1799821163   -2.0456229975
 F   -1.4397247216   -2.3626824142   -0.0004684026
 F   -1.4393909623    1.1798332899    2.0444284175
units bohr
}

basis {

assign 6-31g_2dfp_

[ 6-31g_2dfp_ ]
spherical

!----------------------------------------------------------------------
! Basis Set Exchange
! Version v0.8.13
! https://www.basissetexchange.org
!----------------------------------------------------------------------
!   Basis set: 6-31G(2df,p)
! Description: 6-31G(2df,p)
!        Role: orbital
!     Version: 0  (Data from the original Basis Set Exchange)
!----------------------------------------------------------------------

****
F     0
S    6   1.00
   7001.7130900              0.0018196169
   1051.3660900              0.0139160796
    239.2856900              0.0684053245
     67.3974453              0.233185760
     21.5199573              0.471267439
      7.40310130             0.356618546
SP   3   1.00
     20.8479528             -0.108506975            0.0716287243
      4.80830834            -0.146451658            0.3459121030
      1.34406986             1.128688580            0.7224699570
SP   1   1.00
      0.358151393            1.0000000              1.0000000
D    1   1.00
      3.5000000              1.0000000
D    1   1.00
      0.8750000              1.0000000
F    1   1.00
      1.8500000              1.0000000
****
C     0
S    6   1.00
   3047.5249000              0.0018347
    457.3695100              0.0140373
    103.9486900              0.0688426
     29.2101550              0.2321844
      9.2866630              0.4679413
      3.1639270              0.3623120
SP   3   1.00
      7.8682724             -0.1193324              0.0689991
      1.8812885             -0.1608542              0.3164240
      0.5442493              1.1434564              0.7443083
SP   1   1.00
      0.1687144              1.0000000              1.0000000
D    1   1.00
      1.2520000              1.0000000
D    1   1.00
      0.3130000              1.0000000
F    1   1.00
      0.8000000              1.0000000
****
N     0
S    6   1.00
   4173.5110000              0.0018348
    627.4579000              0.0139950
    142.9021000              0.0685870
     40.2343300              0.2322410
     12.8202100              0.4690700
      4.3904370              0.3604550
SP   3   1.00
     11.6263580             -0.1149610              0.0675800
      2.7162800             -0.1691180              0.3239070
      0.7722180              1.1458520              0.7408950
SP   1   1.00
      0.2120313              1.0000000              1.0000000
D    1   1.00
      1.8260000              1.0000000
D    1   1.00
      0.4565000              1.0000000
F    1   1.00
      1.0000000              1.0000000
****
}

set {
opt_type min
reference rhf
freeze_core true
e_convergence 10
d_convergence 10
ensure_bt_convergence true
dft_spherical_points 590
dft_radial_points 99
}

e = energy('b3lyp')

print_out('Grab this energy {0}'.format(e))
--------------------------------------------------------------------------

    Molecular point group: c1

    Geometry (in Bohr), charge = 0, multiplicity = 1:

       Center              X                  Y                   Z               Mass
    ------------   -----------------  -----------------  -----------------  -----------------
         N            4.436649883148     0.000461959297     0.000270962114    14.003074004430
         C            2.239445034948    -0.000923839903    -0.000530768886    12.000000000000
         C           -0.579799637152     0.003946311997     0.002280726114    12.000000000000
         F           -1.439470464952     1.180187924097    -2.045503685286    18.998403162730
         F           -1.439625783552    -2.362476606403    -0.000349090386    18.998403162730
         F           -1.439292024252     1.180039097697     2.044547729714    18.998403162730

  Charge       = 0
  Multiplicity = 1
  Basis Set: ANONYMOUS9A98FC5C
    Blend: 6-31G_2DFP_
  Basis Set: (ANONYMOUS9A98FC5C AUX)
    Blend: DEF2-UNIVERSAL-JKFIT

    Orbital Energies [Eh]
    ---------------------

    Doubly Occupied:

       1A    -24.765954     2A    -24.764975     3A    -24.763999
       4A    -14.390254     5A    -10.498126     6A    -10.265847
       7A     -1.356556     8A     -1.266377     9A     -1.264405
      10A     -0.945159    11A     -0.784102    12A     -0.669253
      13A     -0.633506    14A     -0.632812    15A     -0.502442
      16A     -0.502414    17A     -0.469276    18A     -0.468439
      19A     -0.464311    20A     -0.443059    21A     -0.400404
      22A     -0.380317    23A     -0.380252

  @DF-RKS Final Energy:  -430.45970955373377

   => Energetics <=

    Nuclear Repulsion Energy =            231.0270116795346667
    One-Electron Energy =               -1052.4667009212812445
    Two-Electron Energy =                 430.6652820212369193
    DFT Exchange-Correlation Energy =     -39.6853023332240937
    Empirical Dispersion Energy =           0.0000000000000000
    VV10 Nonlocal Energy =                  0.0000000000000000
    Total Energy =                       -430.4597095537337736

  Dipole Moment: [D]
     X:    -1.5175      Y:     0.0198      Z:     0.0115     Total:     1.5177

*** Psi4 exiting successfully. Buy a developer a beer!
