                               Psi4 1.4a2.dev629

  ==> Input File <==

--------------------------------------------------------------------------
import os
memory 14 GB

molecule {
 N    4.4293743144   -0.0016550019    0.0028082379
 X    2.2380672400    1.0000000000   -0.0000000000
 C    2.2421431389    0.0038010100   -0.0065284832
 X    2.2380672400    0.0000000000    1.0000000000
 C   -0.5793468886    0.0001117758   -0.0001827055
 F   -1.4357883252    1.1761999772   -2.0372406554
 F   -1.4395184495   -2.3575464384   -0.0003668082
 F   -1.4395504099    1.1790886772    2.0415104142
units bohr
}

basis {

assign 6-31g_2dfp_

[ 6-31g_2dfp_ ]
spherical

!----------------------------------------------------------------------
! Basis Set Exchange
! Version v0.8.13
! https://www.basissetexchange.org
!----------------------------------------------------------------------
!   Basis set: 6-31G(2df,p)
! Description: 6-31G(2df,p)
!        Role: orbital
!     Version: 0  (Data from the original Basis Set Exchange)
!----------------------------------------------------------------------

****
F     0
S    6   1.00
   7001.7130900              0.0018196169
   1051.3660900              0.0139160796
    239.2856900              0.0684053245
     67.3974453              0.233185760
     21.5199573              0.471267439
      7.40310130             0.356618546
SP   3   1.00
     20.8479528             -0.108506975            0.0716287243
      4.80830834            -0.146451658            0.3459121030
      1.34406986             1.128688580            0.7224699570
SP   1   1.00
      0.358151393            1.0000000              1.0000000
D    1   1.00
      3.5000000              1.0000000
D    1   1.00
      0.8750000              1.0000000
F    1   1.00
      1.8500000              1.0000000
****
C     0
S    6   1.00
   3047.5249000              0.0018347
    457.3695100              0.0140373
    103.9486900              0.0688426
     29.2101550              0.2321844
      9.2866630              0.4679413
      3.1639270              0.3623120
SP   3   1.00
      7.8682724             -0.1193324              0.0689991
      1.8812885             -0.1608542              0.3164240
      0.5442493              1.1434564              0.7443083
SP   1   1.00
      0.1687144              1.0000000              1.0000000
D    1   1.00
      1.2520000              1.0000000
D    1   1.00
      0.3130000              1.0000000
F    1   1.00
      0.8000000              1.0000000
****
N     0
S    6   1.00
   4173.5110000              0.0018348
    627.4579000              0.0139950
    142.9021000              0.0685870
     40.2343300              0.2322410
     12.8202100              0.4690700
      4.3904370              0.3604550
SP   3   1.00
     11.6263580             -0.1149610              0.0675800
      2.7162800             -0.1691180              0.3239070
      0.7722180              1.1458520              0.7408950
SP   1   1.00
      0.2120313              1.0000000              1.0000000
D    1   1.00
      1.8260000              1.0000000
D    1   1.00
      0.4565000              1.0000000
F    1   1.00
      1.0000000              1.0000000
****
}

set {
opt_type min
reference rhf
freeze_core true
e_convergence 10
d_convergence 10
ensure_bt_convergence true
dft_spherical_points 590
dft_radial_points 99
}

e = energy('b3lyp')

print_out('Grab this energy {0}'.format(e))
--------------------------------------------------------------------------

    Molecular point group: c1

    Geometry (in Bohr), charge = 0, multiplicity = 1:

       Center              X                  Y                   Z               Mass
    ------------   -----------------  -----------------  -----------------  -----------------
         N            4.429342577628    -0.001453777473     0.002461499764    14.003074004430
         C            2.242111402128     0.004002234427    -0.006875221336    12.000000000000
         C           -0.579378625372     0.000313000227    -0.000529443636    12.000000000000
         F           -1.435820061972     1.176401201627    -2.037587393536    18.998403162730
         F           -1.439550186272    -2.357345213973    -0.000713546336    18.998403162730
         F           -1.439582146672     1.179289901627     2.041163676064    18.998403162730

  Charge       = 0
  Multiplicity = 1
  Basis Set: ANONYMOUS1483458C
    Blend: 6-31G_2DFP_
  Basis Set: (ANONYMOUS1483458C AUX)
    Blend: DEF2-UNIVERSAL-JKFIT

    Orbital Energies [Eh]
    ---------------------

    Doubly Occupied:

       1A    -24.765392     2A    -24.764705     3A    -24.764689
       4A    -14.388469     5A    -10.497643     6A    -10.264124
       7A     -1.358478     8A     -1.266898     9A     -1.265805
      10A     -0.946669    11A     -0.783645    12A     -0.670004
      13A     -0.634173    14A     -0.633901    15A     -0.503041
      16A     -0.503003    17A     -0.469266    18A     -0.468893
      19A     -0.464155    20A     -0.443066    21A     -0.399719
      22A     -0.381141    23A     -0.381100

  @DF-RKS Final Energy:  -430.45982281579984

   => Energetics <=

    Nuclear Repulsion Energy =            231.4683669835640956
    One-Electron Energy =               -1053.3323755992255428
    Two-Electron Energy =                 431.0979869341521180
    DFT Exchange-Correlation Energy =     -39.6938011342905170
    Empirical Dispersion Energy =           0.0000000000000000
    VV10 Nonlocal Energy =                  0.0000000000000000
    Total Energy =                       -430.4598228157998392

  Dipole Moment: [D]
     X:    -1.5323      Y:     0.0075      Z:    -0.0130     Total:     1.5324

*** Psi4 exiting successfully. Buy a developer a beer!
