                               Psi4 1.4a2.dev629

  ==> Input File <==

--------------------------------------------------------------------------
import os
memory 14 GB

molecule {
 N    4.4204827229   -0.0036881084   -0.0021261595
 X    2.2380672400    1.0000000000    0.0000000000
 C    2.2297699258    0.0047912508    0.0027586083
 X    2.2380672400    0.0000000000    1.0000000000
 C   -0.5801558995    0.0017356953    0.0009970292
 F   -1.4309244116    1.1743579267   -2.0481132281
 F   -1.4302103254   -2.3567007979   -0.0035142654
 F   -1.4316486321    1.1795040335    2.0499980155
units bohr
}

basis {

assign 6-31g_2dfp_

[ 6-31g_2dfp_ ]
spherical

!----------------------------------------------------------------------
! Basis Set Exchange
! Version v0.8.13
! https://www.basissetexchange.org
!----------------------------------------------------------------------
!   Basis set: 6-31G(2df,p)
! Description: 6-31G(2df,p)
!        Role: orbital
!     Version: 0  (Data from the original Basis Set Exchange)
!----------------------------------------------------------------------

****
F     0
S    6   1.00
   7001.7130900              0.0018196169
   1051.3660900              0.0139160796
    239.2856900              0.0684053245
     67.3974453              0.233185760
     21.5199573              0.471267439
      7.40310130             0.356618546
SP   3   1.00
     20.8479528             -0.108506975            0.0716287243
      4.80830834            -0.146451658            0.3459121030
      1.34406986             1.128688580            0.7224699570
SP   1   1.00
      0.358151393            1.0000000              1.0000000
D    1   1.00
      3.5000000              1.0000000
D    1   1.00
      0.8750000              1.0000000
F    1   1.00
      1.8500000              1.0000000
****
C     0
S    6   1.00
   3047.5249000              0.0018347
    457.3695100              0.0140373
    103.9486900              0.0688426
     29.2101550              0.2321844
      9.2866630              0.4679413
      3.1639270              0.3623120
SP   3   1.00
      7.8682724             -0.1193324              0.0689991
      1.8812885             -0.1608542              0.3164240
      0.5442493              1.1434564              0.7443083
SP   1   1.00
      0.1687144              1.0000000              1.0000000
D    1   1.00
      1.2520000              1.0000000
D    1   1.00
      0.3130000              1.0000000
F    1   1.00
      0.8000000              1.0000000
****
N     0
S    6   1.00
   4173.5110000              0.0018348
    627.4579000              0.0139950
    142.9021000              0.0685870
     40.2343300              0.2322410
     12.8202100              0.4690700
      4.3904370              0.3604550
SP   3   1.00
     11.6263580             -0.1149610              0.0675800
      2.7162800             -0.1691180              0.3239070
      0.7722180              1.1458520              0.7408950
SP   1   1.00
      0.2120313              1.0000000              1.0000000
D    1   1.00
      1.8260000              1.0000000
D    1   1.00
      0.4565000              1.0000000
F    1   1.00
      1.0000000              1.0000000
****
}

set {
opt_type min
reference rhf
freeze_core true
e_convergence 10
d_convergence 10
ensure_bt_convergence true
dft_spherical_points 590
dft_radial_points 99
}

e = energy('b3lyp')

print_out('Grab this energy {0}'.format(e))
--------------------------------------------------------------------------

    Molecular point group: c1

    Geometry (in Bohr), charge = 0, multiplicity = 1:

       Center              X                  Y                   Z               Mass
    ------------   -----------------  -----------------  -----------------  -----------------
         N            4.419012318614    -0.003401209692    -0.001961287060    14.003074004430
         C            2.228299521514     0.005078149508     0.002923480740    12.000000000000
         C           -0.581626303786     0.002022594008     0.001161901640    12.000000000000
         F           -1.432394815886     1.174644825408    -2.047948355660    18.998403162730
         F           -1.431680729686    -2.356413899192    -0.003349392960    18.998403162730
         F           -1.433119036386     1.179790932208     2.050162887940    18.998403162730

  Charge       = 0
  Multiplicity = 1
  Basis Set: ANONYMOUSC8758D8D
    Blend: 6-31G_2DFP_
  Basis Set: (ANONYMOUSC8758D8D AUX)
    Blend: DEF2-UNIVERSAL-JKFIT

    Orbital Energies [Eh]
    ---------------------

    Doubly Occupied:

       1A    -24.765277     2A    -24.765174     3A    -24.765073
       4A    -14.388838     5A    -10.497323     6A    -10.264013
       7A     -1.357746     8A     -1.266417     9A     -1.266411
      10A     -0.946022    11A     -0.784890    12A     -0.670031
      13A     -0.634167    14A     -0.633954    15A     -0.503223
      16A     -0.502681    17A     -0.469790    18A     -0.469495
      19A     -0.463685    20A     -0.443515    21A     -0.399793
      22A     -0.380571    23A     -0.380532

  @DF-RKS Final Energy:  -430.45981020327787

   => Energetics <=

    Nuclear Repulsion Energy =            231.5052332343059902
    One-Electron Energy =               -1053.4054513588071131
    Two-Electron Energy =                 431.1332402965787196
    DFT Exchange-Correlation Energy =     -39.6928323753554224
    Empirical Dispersion Energy =           0.0000000000000000
    VV10 Nonlocal Energy =                  0.0000000000000000
    Total Energy =                       -430.4598102032778684

  Dipole Moment: [D]
     X:    -1.5407      Y:     0.0037      Z:     0.0021     Total:     1.5407

*** Psi4 exiting successfully. Buy a developer a beer!
