                               Psi4 1.4a2.dev629

  ==> Input File <==

--------------------------------------------------------------------------
import os
memory 14 GB

molecule {
 N    4.4311426523   -0.0059752578   -0.0034314691
 X    2.2380672400    1.0000000000    0.0000000000
 C    2.2380644891    0.0104818431    0.0060278577
 X    2.2380672400    0.0000000000    1.0000000000
 C   -0.5761493560    0.0021402184    0.0012344819
 F   -1.4385861346    1.1732226178   -2.0433825284
 F   -1.4400839620   -2.3557795237   -0.0028285766
 F   -1.4370743088    1.1759101022    2.0423802346
units bohr
}

basis {

assign 6-31g_2dfp_

[ 6-31g_2dfp_ ]
spherical

!----------------------------------------------------------------------
! Basis Set Exchange
! Version v0.8.13
! https://www.basissetexchange.org
!----------------------------------------------------------------------
!   Basis set: 6-31G(2df,p)
! Description: 6-31G(2df,p)
!        Role: orbital
!     Version: 0  (Data from the original Basis Set Exchange)
!----------------------------------------------------------------------

****
F     0
S    6   1.00
   7001.7130900              0.0018196169
   1051.3660900              0.0139160796
    239.2856900              0.0684053245
     67.3974453              0.233185760
     21.5199573              0.471267439
      7.40310130             0.356618546
SP   3   1.00
     20.8479528             -0.108506975            0.0716287243
      4.80830834            -0.146451658            0.3459121030
      1.34406986             1.128688580            0.7224699570
SP   1   1.00
      0.358151393            1.0000000              1.0000000
D    1   1.00
      3.5000000              1.0000000
D    1   1.00
      0.8750000              1.0000000
F    1   1.00
      1.8500000              1.0000000
****
C     0
S    6   1.00
   3047.5249000              0.0018347
    457.3695100              0.0140373
    103.9486900              0.0688426
     29.2101550              0.2321844
      9.2866630              0.4679413
      3.1639270              0.3623120
SP   3   1.00
      7.8682724             -0.1193324              0.0689991
      1.8812885             -0.1608542              0.3164240
      0.5442493              1.1434564              0.7443083
SP   1   1.00
      0.1687144              1.0000000              1.0000000
D    1   1.00
      1.2520000              1.0000000
D    1   1.00
      0.3130000              1.0000000
F    1   1.00
      0.8000000              1.0000000
****
N     0
S    6   1.00
   4173.5110000              0.0018348
    627.4579000              0.0139950
    142.9021000              0.0685870
     40.2343300              0.2322410
     12.8202100              0.4690700
      4.3904370              0.3604550
SP   3   1.00
     11.6263580             -0.1149610              0.0675800
      2.7162800             -0.1691180              0.3239070
      0.7722180              1.1458520              0.7408950
SP   1   1.00
      0.2120313              1.0000000              1.0000000
D    1   1.00
      1.8260000              1.0000000
D    1   1.00
      0.4565000              1.0000000
F    1   1.00
      1.0000000              1.0000000
****
}

set {
opt_type min
reference rhf
freeze_core true
e_convergence 10
d_convergence 10
ensure_bt_convergence true
dft_spherical_points 590
dft_radial_points 99
}

e = energy('b3lyp')

print_out('Grab this energy {0}'.format(e))
--------------------------------------------------------------------------

    Molecular point group: c1

    Geometry (in Bohr), charge = 0, multiplicity = 1:

       Center              X                  Y                   Z               Mass
    ------------   -----------------  -----------------  -----------------  -----------------
         N            4.431138989913    -0.005359605670    -0.003076899947    14.003074004430
         C            2.238060826713     0.011097495230     0.006382426853    12.000000000000
         C           -0.576153018387     0.002755870530     0.001589051053    12.000000000000
         F           -1.438589796987     1.173838269930    -2.043027959247    18.998403162730
         F           -1.440087624387    -2.355163871570    -0.002474007447    18.998403162730
         F           -1.437077971187     1.176525754330     2.042734803753    18.998403162730

  Charge       = 0
  Multiplicity = 1
  Basis Set: ANONYMOUS86ADC0E0
    Blend: 6-31G_2DFP_
  Basis Set: (ANONYMOUS86ADC0E0 AUX)
    Blend: DEF2-UNIVERSAL-JKFIT

    Orbital Energies [Eh]
    ---------------------

    Doubly Occupied:

       1A    -24.765086     2A    -24.764647     3A    -24.764211
       4A    -14.389811     5A    -10.497342     6A    -10.265176
       7A     -1.357864     8A     -1.266474     9A     -1.265129
      10A     -0.946071    11A     -0.784492    12A     -0.670020
      13A     -0.633898    14A     -0.633355    15A     -0.502919
      16A     -0.502489    17A     -0.469052    18A     -0.468321
      19A     -0.464457    20A     -0.442746    21A     -0.400407
      22A     -0.380868    23A     -0.380805

  @DF-RKS Final Energy:  -430.45976666010739

   => Energetics <=

    Nuclear Repulsion Energy =            231.4159666610730142
    One-Electron Energy =               -1053.2337991853219137
    Two-Electron Energy =                 431.0494410608420708
    DFT Exchange-Correlation Energy =     -39.6913751967006050
    Empirical Dispersion Energy =           0.0000000000000000
    VV10 Nonlocal Energy =                  0.0000000000000000
    Total Energy =                       -430.4597666601073911

  Dipole Moment: [D]
     X:    -1.5101      Y:     0.0186      Z:     0.0107     Total:     1.5103

*** Psi4 exiting successfully. Buy a developer a beer!
