                               Psi4 1.4a2.dev629

  ==> Input File <==

--------------------------------------------------------------------------
import os
memory 14 GB

molecule {
 N    4.4312207271   -0.0005700598    0.0009775775
 X    2.2380672400    1.0000000000   -0.0000000000
 C    2.2380643292   -0.0026330428    0.0045697885
 X    2.2380672400    0.0000000000    1.0000000000
 C   -0.5761659516   -0.0027495748    0.0047642430
 F   -1.4473100208    1.1724886997   -2.0308104398
 F   -1.4342451575   -2.3617670714   -0.0165675045
 F   -1.4342505463    1.1952310490    2.0370663353
units bohr
}

basis {

assign 6-31g_2dfp_

[ 6-31g_2dfp_ ]
spherical

!----------------------------------------------------------------------
! Basis Set Exchange
! Version v0.8.13
! https://www.basissetexchange.org
!----------------------------------------------------------------------
!   Basis set: 6-31G(2df,p)
! Description: 6-31G(2df,p)
!        Role: orbital
!     Version: 0  (Data from the original Basis Set Exchange)
!----------------------------------------------------------------------

****
F     0
S    6   1.00
   7001.7130900              0.0018196169
   1051.3660900              0.0139160796
    239.2856900              0.0684053245
     67.3974453              0.233185760
     21.5199573              0.471267439
      7.40310130             0.356618546
SP   3   1.00
     20.8479528             -0.108506975            0.0716287243
      4.80830834            -0.146451658            0.3459121030
      1.34406986             1.128688580            0.7224699570
SP   1   1.00
      0.358151393            1.0000000              1.0000000
D    1   1.00
      3.5000000              1.0000000
D    1   1.00
      0.8750000              1.0000000
F    1   1.00
      1.8500000              1.0000000
****
C     0
S    6   1.00
   3047.5249000              0.0018347
    457.3695100              0.0140373
    103.9486900              0.0688426
     29.2101550              0.2321844
      9.2866630              0.4679413
      3.1639270              0.3623120
SP   3   1.00
      7.8682724             -0.1193324              0.0689991
      1.8812885             -0.1608542              0.3164240
      0.5442493              1.1434564              0.7443083
SP   1   1.00
      0.1687144              1.0000000              1.0000000
D    1   1.00
      1.2520000              1.0000000
D    1   1.00
      0.3130000              1.0000000
F    1   1.00
      0.8000000              1.0000000
****
N     0
S    6   1.00
   4173.5110000              0.0018348
    627.4579000              0.0139950
    142.9021000              0.0685870
     40.2343300              0.2322410
     12.8202100              0.4690700
      4.3904370              0.3604550
SP   3   1.00
     11.6263580             -0.1149610              0.0675800
      2.7162800             -0.1691180              0.3239070
      0.7722180              1.1458520              0.7408950
SP   1   1.00
      0.2120313              1.0000000              1.0000000
D    1   1.00
      1.8260000              1.0000000
D    1   1.00
      0.4565000              1.0000000
F    1   1.00
      1.0000000              1.0000000
****
}

set {
opt_type min
reference rhf
freeze_core true
e_convergence 10
d_convergence 10
ensure_bt_convergence true
dft_spherical_points 590
dft_radial_points 99
}

e = energy('b3lyp')

print_out('Grab this energy {0}'.format(e))
--------------------------------------------------------------------------

    Molecular point group: c1

    Geometry (in Bohr), charge = 0, multiplicity = 1:

       Center              X                  Y                   Z               Mass
    ------------   -----------------  -----------------  -----------------  -----------------
         N            4.431219935772    -0.000996566059     0.001716608084    14.003074004430
         C            2.238063537872    -0.003059549059     0.005308819084    12.000000000000
         C           -0.576166742928    -0.003176081059     0.005503273584    12.000000000000
         F           -1.447310812128     1.172062193441    -2.030071409216    18.998403162730
         F           -1.434245948828    -2.362193577659    -0.015828473916    18.998403162730
         F           -1.434251337628     1.194804542741     2.037805365884    18.998403162730

  Charge       = 0
  Multiplicity = 1
  Basis Set: ANONYMOUS13BAFC36
    Blend: 6-31G_2DFP_
  Basis Set: (ANONYMOUS13BAFC36 AUX)
    Blend: DEF2-UNIVERSAL-JKFIT

    Orbital Energies [Eh]
    ---------------------

    Doubly Occupied:

       1A    -24.765015     2A    -24.764999     3A    -24.763902
       4A    -14.389810     5A    -10.497342     6A    -10.265179
       7A     -1.357876     8A     -1.266743     9A     -1.264836
      10A     -0.946070    11A     -0.784495    12A     -0.670021
      13A     -0.634221    14A     -0.633017    15A     -0.503455
      16A     -0.501956    17A     -0.469499    18A     -0.467885
      19A     -0.464459    20A     -0.442686    21A     -0.400405
      22A     -0.380895    23A     -0.380780

  @DF-RKS Final Energy:  -430.45970765286921

   => Energetics <=

    Nuclear Repulsion Energy =            231.4175500461049069
    One-Electron Energy =               -1053.2370200568952896
    Two-Electron Energy =                 431.0511612284100806
    DFT Exchange-Correlation Energy =     -39.6913988704888965
    Empirical Dispersion Energy =           0.0000000000000000
    VV10 Nonlocal Energy =                  0.0000000000000000
    Total Energy =                       -430.4597076528692128

  Dipole Moment: [D]
     X:    -1.5102      Y:    -0.0087      Z:     0.0152     Total:     1.5103

*** Psi4 exiting successfully. Buy a developer a beer!
