                               Psi4 1.4a2.dev629

  ==> Input File <==

--------------------------------------------------------------------------
import os
memory 14 GB

molecule {
 N    4.4365250007    0.0088848086    0.0051318901
 X    2.2380672400    1.0000000000    0.0000000000
 C    2.2393479375   -0.0007855008   -0.0004489621
 X    2.2380672400   -0.0000000000    1.0000000000
 C   -0.5799014722   -0.0027065000   -0.0015531285
 F   -1.4395620196    1.1756828415   -2.0481067098
 F   -1.4528309279   -2.3600372645   -0.0029362673
 F   -1.4262651385    1.1789616151    2.0479131777
units bohr
}

basis {

assign 6-31g_2dfp_

[ 6-31g_2dfp_ ]
spherical

!----------------------------------------------------------------------
! Basis Set Exchange
! Version v0.8.13
! https://www.basissetexchange.org
!----------------------------------------------------------------------
!   Basis set: 6-31G(2df,p)
! Description: 6-31G(2df,p)
!        Role: orbital
!     Version: 0  (Data from the original Basis Set Exchange)
!----------------------------------------------------------------------

****
F     0
S    6   1.00
   7001.7130900              0.0018196169
   1051.3660900              0.0139160796
    239.2856900              0.0684053245
     67.3974453              0.233185760
     21.5199573              0.471267439
      7.40310130             0.356618546
SP   3   1.00
     20.8479528             -0.108506975            0.0716287243
      4.80830834            -0.146451658            0.3459121030
      1.34406986             1.128688580            0.7224699570
SP   1   1.00
      0.358151393            1.0000000              1.0000000
D    1   1.00
      3.5000000              1.0000000
D    1   1.00
      0.8750000              1.0000000
F    1   1.00
      1.8500000              1.0000000
****
C     0
S    6   1.00
   3047.5249000              0.0018347
    457.3695100              0.0140373
    103.9486900              0.0688426
     29.2101550              0.2321844
      9.2866630              0.4679413
      3.1639270              0.3623120
SP   3   1.00
      7.8682724             -0.1193324              0.0689991
      1.8812885             -0.1608542              0.3164240
      0.5442493              1.1434564              0.7443083
SP   1   1.00
      0.1687144              1.0000000              1.0000000
D    1   1.00
      1.2520000              1.0000000
D    1   1.00
      0.3130000              1.0000000
F    1   1.00
      0.8000000              1.0000000
****
N     0
S    6   1.00
   4173.5110000              0.0018348
    627.4579000              0.0139950
    142.9021000              0.0685870
     40.2343300              0.2322410
     12.8202100              0.4690700
      4.3904370              0.3604550
SP   3   1.00
     11.6263580             -0.1149610              0.0675800
      2.7162800             -0.1691180              0.3239070
      0.7722180              1.1458520              0.7408950
SP   1   1.00
      0.2120313              1.0000000              1.0000000
D    1   1.00
      1.8260000              1.0000000
D    1   1.00
      0.4565000              1.0000000
F    1   1.00
      1.0000000              1.0000000
****
}

set {
opt_type min
reference rhf
freeze_core true
e_convergence 10
d_convergence 10
ensure_bt_convergence true
dft_spherical_points 590
dft_radial_points 99
}

e = energy('b3lyp')

print_out('Grab this energy {0}'.format(e))
--------------------------------------------------------------------------

    Molecular point group: c1

    Geometry (in Bohr), charge = 0, multiplicity = 1:

       Center              X                  Y                   Z               Mass
    ------------   -----------------  -----------------  -----------------  -----------------
         N            4.436622496661     0.009094750456     0.005254250639    14.003074004430
         C            2.239445433461    -0.000575558944    -0.000326601561    12.000000000000
         C           -0.579803976239    -0.002496558144    -0.001430767961    12.000000000000
         F           -1.439464523639     1.175892783356    -2.047984349261    18.998403162730
         F           -1.452733431939    -2.359827322644    -0.002813906761    18.998403162730
         F           -1.426167642539     1.179171556956     2.048035538239    18.998403162730

  Charge       = 0
  Multiplicity = 1
  Basis Set: ANONYMOUS84BF280D
    Blend: 6-31G_2DFP_
  Basis Set: (ANONYMOUS84BF280D AUX)
    Blend: DEF2-UNIVERSAL-JKFIT

    Orbital Energies [Eh]
    ---------------------

    Doubly Occupied:

       1A    -24.765148     2A    -24.764974     3A    -24.764808
       4A    -14.390251     5A    -10.498128     6A    -10.265846
       7A     -1.356534     8A     -1.265816     9A     -1.264987
      10A     -0.945157    11A     -0.784101    12A     -0.669243
      13A     -0.633347    14A     -0.632966    15A     -0.502683
      16A     -0.502163    17A     -0.469129    18A     -0.468576
      19A     -0.464337    20A     -0.443070    21A     -0.400401
      22A     -0.380363    23A     -0.380202

  @DF-RKS Final Energy:  -430.45970487414621

   => Energetics <=

    Nuclear Repulsion Energy =            231.0272708152230621
    One-Electron Energy =               -1052.4672308197277744
    Two-Electron Energy =                 430.6655528849245229
    DFT Exchange-Correlation Energy =     -39.6852977545661005
    Empirical Dispersion Energy =           0.0000000000000000
    VV10 Nonlocal Energy =                  0.0000000000000000
    Total Energy =                       -430.4597048741462118

  Dipole Moment: [D]
     X:    -1.5176      Y:    -0.0055      Z:    -0.0031     Total:     1.5176

*** Psi4 exiting successfully. Buy a developer a beer!
