                               Psi4 1.4a2.dev629

  ==> Input File <==

--------------------------------------------------------------------------
import os
memory 14 GB

molecule {
 N    4.4204776505    0.0016184450   -0.0028616980
 X    2.2380672400    1.0000000000   -0.0000000000
 C    2.2297698468   -0.0037553726    0.0065596012
 X    2.2380672400   -0.0000000000    1.0000000000
 C   -0.5801485992   -0.0001033569    0.0001899024
 F   -1.4333841651    1.1821747454   -2.0475892541
 F   -1.4296846008   -2.3591837903    0.0003930546
 F   -1.4297167522    1.1792493293    2.0433083940
units bohr
}

basis {

assign 6-31g_2dfp_

[ 6-31g_2dfp_ ]
spherical

!----------------------------------------------------------------------
! Basis Set Exchange
! Version v0.8.13
! https://www.basissetexchange.org
!----------------------------------------------------------------------
!   Basis set: 6-31G(2df,p)
! Description: 6-31G(2df,p)
!        Role: orbital
!     Version: 0  (Data from the original Basis Set Exchange)
!----------------------------------------------------------------------

****
F     0
S    6   1.00
   7001.7130900              0.0018196169
   1051.3660900              0.0139160796
    239.2856900              0.0684053245
     67.3974453              0.233185760
     21.5199573              0.471267439
      7.40310130             0.356618546
SP   3   1.00
     20.8479528             -0.108506975            0.0716287243
      4.80830834            -0.146451658            0.3459121030
      1.34406986             1.128688580            0.7224699570
SP   1   1.00
      0.358151393            1.0000000              1.0000000
D    1   1.00
      3.5000000              1.0000000
D    1   1.00
      0.8750000              1.0000000
F    1   1.00
      1.8500000              1.0000000
****
C     0
S    6   1.00
   3047.5249000              0.0018347
    457.3695100              0.0140373
    103.9486900              0.0688426
     29.2101550              0.2321844
      9.2866630              0.4679413
      3.1639270              0.3623120
SP   3   1.00
      7.8682724             -0.1193324              0.0689991
      1.8812885             -0.1608542              0.3164240
      0.5442493              1.1434564              0.7443083
SP   1   1.00
      0.1687144              1.0000000              1.0000000
D    1   1.00
      1.2520000              1.0000000
D    1   1.00
      0.3130000              1.0000000
F    1   1.00
      0.8000000              1.0000000
****
N     0
S    6   1.00
   4173.5110000              0.0018348
    627.4579000              0.0139950
    142.9021000              0.0685870
     40.2343300              0.2322410
     12.8202100              0.4690700
      4.3904370              0.3604550
SP   3   1.00
     11.6263580             -0.1149610              0.0675800
      2.7162800             -0.1691180              0.3239070
      0.7722180              1.1458520              0.7408950
SP   1   1.00
      0.2120313              1.0000000              1.0000000
D    1   1.00
      1.8260000              1.0000000
D    1   1.00
      0.4565000              1.0000000
F    1   1.00
      1.0000000              1.0000000
****
}

set {
opt_type min
reference rhf
freeze_core true
e_convergence 10
d_convergence 10
ensure_bt_convergence true
dft_spherical_points 590
dft_radial_points 99
}

e = energy('b3lyp')

print_out('Grab this energy {0}'.format(e))
--------------------------------------------------------------------------

    Molecular point group: c1

    Geometry (in Bohr), charge = 0, multiplicity = 1:

       Center              X                  Y                   Z               Mass
    ------------   -----------------  -----------------  -----------------  -----------------
         N            4.419007511494     0.001419280587    -0.002514948345    14.003074004430
         C            2.228299707794    -0.003954537013     0.006906350855    12.000000000000
         C           -0.581618738206    -0.000302521313     0.000536652055    12.000000000000
         F           -1.434854304106     1.181975580987    -2.047242504445    18.998403162730
         F           -1.431154739806    -2.359382954713     0.000739804255    18.998403162730
         F           -1.431186891206     1.179050164887     2.043655143655    18.998403162730

  Charge       = 0
  Multiplicity = 1
  Basis Set: ANONYMOUSBF612786
    Blend: 6-31G_2DFP_
  Basis Set: (ANONYMOUSBF612786 AUX)
    Blend: DEF2-UNIVERSAL-JKFIT

    Orbital Energies [Eh]
    ---------------------

    Doubly Occupied:

       1A    -24.765415     2A    -24.765398     3A    -24.764714
       4A    -14.388838     5A    -10.497322     6A    -10.264013
       7A     -1.357750     8A     -1.266969     9A     -1.265858
      10A     -0.946023    11A     -0.784891    12A     -0.670032
      13A     -0.634202    14A     -0.633924    15A     -0.502971
      16A     -0.502935    17A     -0.469827    18A     -0.469454
      19A     -0.463686    20A     -0.443518    21A     -0.399794
      22A     -0.380569    23A     -0.380532

  @DF-RKS Final Energy:  -430.45981167798004

   => Energetics <=

    Nuclear Repulsion Energy =            231.5051379784021606
    One-Electron Energy =               -1053.4052369320463640
    Two-Electron Energy =                 431.1331204981341898
    DFT Exchange-Correlation Energy =     -39.6928332224700853
    Empirical Dispersion Energy =           0.0000000000000000
    VV10 Nonlocal Energy =                  0.0000000000000000
    Total Energy =                       -430.4598116779800421

  Dipole Moment: [D]
     X:    -1.5407      Y:    -0.0075      Z:     0.0130     Total:     1.5408

*** Psi4 exiting successfully. Buy a developer a beer!
