                               Psi4 1.4a2.dev629

  ==> Input File <==

--------------------------------------------------------------------------
import os
memory 14 GB

molecule {
 N    4.4293819973    0.0023321026    0.0013535665
 X    2.2380672400    1.0000000000    0.0000000000
 C    2.2421439717   -0.0057391986   -0.0033191042
 X    2.2380672400   -0.0000000000    1.0000000000
 C   -0.5793488946   -0.0004127784   -0.0002384907
 F   -1.4382930877    1.1767186836   -2.0408982753
 F   -1.4360900203   -2.3520896999   -0.0006926533
 F   -1.4404805865    1.1791908907    2.0437949570
units bohr
}

basis {

assign 6-31g_2dfp_

[ 6-31g_2dfp_ ]
spherical

!----------------------------------------------------------------------
! Basis Set Exchange
! Version v0.8.13
! https://www.basissetexchange.org
!----------------------------------------------------------------------
!   Basis set: 6-31G(2df,p)
! Description: 6-31G(2df,p)
!        Role: orbital
!     Version: 0  (Data from the original Basis Set Exchange)
!----------------------------------------------------------------------

****
F     0
S    6   1.00
   7001.7130900              0.0018196169
   1051.3660900              0.0139160796
    239.2856900              0.0684053245
     67.3974453              0.233185760
     21.5199573              0.471267439
      7.40310130             0.356618546
SP   3   1.00
     20.8479528             -0.108506975            0.0716287243
      4.80830834            -0.146451658            0.3459121030
      1.34406986             1.128688580            0.7224699570
SP   1   1.00
      0.358151393            1.0000000              1.0000000
D    1   1.00
      3.5000000              1.0000000
D    1   1.00
      0.8750000              1.0000000
F    1   1.00
      1.8500000              1.0000000
****
C     0
S    6   1.00
   3047.5249000              0.0018347
    457.3695100              0.0140373
    103.9486900              0.0688426
     29.2101550              0.2321844
      9.2866630              0.4679413
      3.1639270              0.3623120
SP   3   1.00
      7.8682724             -0.1193324              0.0689991
      1.8812885             -0.1608542              0.3164240
      0.5442493              1.1434564              0.7443083
SP   1   1.00
      0.1687144              1.0000000              1.0000000
D    1   1.00
      1.2520000              1.0000000
D    1   1.00
      0.3130000              1.0000000
F    1   1.00
      0.8000000              1.0000000
****
N     0
S    6   1.00
   4173.5110000              0.0018348
    627.4579000              0.0139950
    142.9021000              0.0685870
     40.2343300              0.2322410
     12.8202100              0.4690700
      4.3904370              0.3604550
SP   3   1.00
     11.6263580             -0.1149610              0.0675800
      2.7162800             -0.1691180              0.3239070
      0.7722180              1.1458520              0.7408950
SP   1   1.00
      0.2120313              1.0000000              1.0000000
D    1   1.00
      1.8260000              1.0000000
D    1   1.00
      0.4565000              1.0000000
F    1   1.00
      1.0000000              1.0000000
****
}

set {
opt_type min
reference rhf
freeze_core true
e_convergence 10
d_convergence 10
ensure_bt_convergence true
dft_spherical_points 590
dft_radial_points 99
}

e = energy('b3lyp')

print_out('Grab this energy {0}'.format(e))
--------------------------------------------------------------------------

    Molecular point group: c1

    Geometry (in Bohr), charge = 0, multiplicity = 1:

       Center              X                  Y                   Z               Mass
    ------------   -----------------  -----------------  -----------------  -----------------
         N            4.429350578133     0.002001524046     0.001162658070    14.003074004430
         C            2.242112552533    -0.006069777154    -0.003510012630    12.000000000000
         C           -0.579380313767    -0.000743356954    -0.000429399130    12.000000000000
         F           -1.438324506867     1.176388105046    -2.041089183730    18.998403162730
         F           -1.436121439467    -2.352420278454    -0.000883561730    18.998403162730
         F           -1.440512005667     1.178860312146     2.043604048570    18.998403162730

  Charge       = 0
  Multiplicity = 1
  Basis Set: ANONYMOUS5CD9B51F
    Blend: 6-31G_2DFP_
  Basis Set: (ANONYMOUS5CD9B51F AUX)
    Blend: DEF2-UNIVERSAL-JKFIT

    Orbital Energies [Eh]
    ---------------------

    Doubly Occupied:

       1A    -24.765465     2A    -24.764928     3A    -24.764393
       4A    -14.388469     5A    -10.497642     6A    -10.264124
       7A     -1.358487     8A     -1.267020     9A     -1.265676
      10A     -0.946669    11A     -0.783645    12A     -0.670007
      13A     -0.634201    14A     -0.633875    15A     -0.503081
      16A     -0.502965    17A     -0.469295    18A     -0.468864
      19A     -0.464152    20A     -0.443065    21A     -0.399718
      22A     -0.381133    23A     -0.381109

  @DF-RKS Final Energy:  -430.45981992114235

   => Energetics <=

    Nuclear Repulsion Energy =            231.4683669150533376
    One-Electron Energy =               -1053.3323583446913290
    Two-Electron Energy =                 431.0979747601757026
    DFT Exchange-Correlation Energy =     -39.6938032516800945
    Empirical Dispersion Energy =           0.0000000000000000
    VV10 Nonlocal Energy =                  0.0000000000000000
    Total Energy =                       -430.4598199211423548

  Dipole Moment: [D]
     X:    -1.5323      Y:    -0.0150      Z:    -0.0087     Total:     1.5324

*** Psi4 exiting successfully. Buy a developer a beer!
