                               Psi4 1.4a2.dev629

  ==> Input File <==

--------------------------------------------------------------------------
import os
memory 14 GB

molecule {
 N    4.4350306445    0.0041457753   -0.0071784312
 X    2.2380672400    1.0000000000    0.0000000000
 C    2.2353324280    0.0003574825   -0.0006213161
 X    2.2380672400   -0.0000000000    1.0000000000
 C   -0.5807545071   -0.0001521591    0.0002631249
 F   -1.4229929576    1.1795797642   -2.0430919940
 F   -1.4446517329   -2.3518499109    0.0092445252
 F   -1.4446504948    1.1679190480    2.0413840913
units bohr
}

basis {

assign 6-31g_2dfp_

[ 6-31g_2dfp_ ]
spherical

!----------------------------------------------------------------------
! Basis Set Exchange
! Version v0.8.13
! https://www.basissetexchange.org
!----------------------------------------------------------------------
!   Basis set: 6-31G(2df,p)
! Description: 6-31G(2df,p)
!        Role: orbital
!     Version: 0  (Data from the original Basis Set Exchange)
!----------------------------------------------------------------------

****
F     0
S    6   1.00
   7001.7130900              0.0018196169
   1051.3660900              0.0139160796
    239.2856900              0.0684053245
     67.3974453              0.233185760
     21.5199573              0.471267439
      7.40310130             0.356618546
SP   3   1.00
     20.8479528             -0.108506975            0.0716287243
      4.80830834            -0.146451658            0.3459121030
      1.34406986             1.128688580            0.7224699570
SP   1   1.00
      0.358151393            1.0000000              1.0000000
D    1   1.00
      3.5000000              1.0000000
D    1   1.00
      0.8750000              1.0000000
F    1   1.00
      1.8500000              1.0000000
****
C     0
S    6   1.00
   3047.5249000              0.0018347
    457.3695100              0.0140373
    103.9486900              0.0688426
     29.2101550              0.2321844
      9.2866630              0.4679413
      3.1639270              0.3623120
SP   3   1.00
      7.8682724             -0.1193324              0.0689991
      1.8812885             -0.1608542              0.3164240
      0.5442493              1.1434564              0.7443083
SP   1   1.00
      0.1687144              1.0000000              1.0000000
D    1   1.00
      1.2520000              1.0000000
D    1   1.00
      0.3130000              1.0000000
F    1   1.00
      0.8000000              1.0000000
****
N     0
S    6   1.00
   4173.5110000              0.0018348
    627.4579000              0.0139950
    142.9021000              0.0685870
     40.2343300              0.2322410
     12.8202100              0.4690700
      4.3904370              0.3604550
SP   3   1.00
     11.6263580             -0.1149610              0.0675800
      2.7162800             -0.1691180              0.3239070
      0.7722180              1.1458520              0.7408950
SP   1   1.00
      0.2120313              1.0000000              1.0000000
D    1   1.00
      1.8260000              1.0000000
D    1   1.00
      0.4565000              1.0000000
F    1   1.00
      1.0000000              1.0000000
****
}

set {
opt_type min
reference rhf
freeze_core true
e_convergence 10
d_convergence 10
ensure_bt_convergence true
dft_spherical_points 590
dft_radial_points 99
}

e = energy('b3lyp')

print_out('Grab this energy {0}'.format(e))
--------------------------------------------------------------------------

    Molecular point group: c1

    Geometry (in Bohr), charge = 0, multiplicity = 1:

       Center              X                  Y                   Z               Mass
    ------------   -----------------  -----------------  -----------------  -----------------
         N            4.434690902671     0.004378900019    -0.007582284760    14.003074004430
         C            2.234992686171     0.000590607219    -0.001025169660    12.000000000000
         C           -0.581094248929     0.000080965619    -0.000140728660    12.000000000000
         F           -1.423332699429     1.179812888919    -2.043495847560    18.998403162730
         F           -1.444991474729    -2.351616786181     0.008840671640    18.998403162730
         F           -1.444990236629     1.168152172719     2.040980237740    18.998403162730

  Charge       = 0
  Multiplicity = 1
  Basis Set: ANONYMOUSBB06DBCB
    Blend: 6-31G_2DFP_
  Basis Set: (ANONYMOUSBB06DBCB AUX)
    Blend: DEF2-UNIVERSAL-JKFIT

    Orbital Energies [Eh]
    ---------------------

    Doubly Occupied:

       1A    -24.765414     2A    -24.764721     3A    -24.764705
       4A    -14.390100     5A    -10.497198     6A    -10.265370
       7A     -1.359232     8A     -1.267519     9A     -1.266128
      10A     -0.944270    11A     -0.784226    12A     -0.670649
      13A     -0.634846    14A     -0.634122    15A     -0.503730
      16A     -0.502843    17A     -0.469785    18A     -0.468795
      19A     -0.464478    20A     -0.443143    21A     -0.400066
      22A     -0.379661    23A     -0.379507

  @DF-RKS Final Energy:  -430.45957265491950

   => Energetics <=

    Nuclear Repulsion Energy =            231.5110120834767997
    One-Electron Energy =               -1053.4141573158244682
    Two-Electron Energy =                 431.1344585535242686
    DFT Exchange-Correlation Energy =     -39.6908859760960553
    Empirical Dispersion Energy =           0.0000000000000000
    VV10 Nonlocal Energy =                  0.0000000000000000
    Total Energy =                       -430.4595726549194978

  Dipole Moment: [D]
     X:    -1.5366      Y:     0.0011      Z:    -0.0019     Total:     1.5366

*** Psi4 exiting successfully. Buy a developer a beer!
