                               Psi4 1.4a2.dev629

  ==> Input File <==

--------------------------------------------------------------------------
import os
memory 14 GB

molecule {
 N    4.4311964606    0.0026075879    0.0015236748
 X    2.2380672400    1.0000000000    0.0000000000
 C    2.2380635720   -0.0068800530   -0.0039774843
 X    2.2380672400   -0.0000000000    1.0000000000
 C   -0.5761420948    0.0033122012    0.0019139091
 F   -1.4386232517    1.1761348274   -2.0416866497
 F   -1.4365833306   -2.3536277931   -0.0011585634
 F   -1.4405979756    1.1784532296    2.0433851135
units bohr
}

basis {

assign 6-31g_2dfp_

[ 6-31g_2dfp_ ]
spherical

!----------------------------------------------------------------------
! Basis Set Exchange
! Version v0.8.13
! https://www.basissetexchange.org
!----------------------------------------------------------------------
!   Basis set: 6-31G(2df,p)
! Description: 6-31G(2df,p)
!        Role: orbital
!     Version: 0  (Data from the original Basis Set Exchange)
!----------------------------------------------------------------------

****
F     0
S    6   1.00
   7001.7130900              0.0018196169
   1051.3660900              0.0139160796
    239.2856900              0.0684053245
     67.3974453              0.233185760
     21.5199573              0.471267439
      7.40310130             0.356618546
SP   3   1.00
     20.8479528             -0.108506975            0.0716287243
      4.80830834            -0.146451658            0.3459121030
      1.34406986             1.128688580            0.7224699570
SP   1   1.00
      0.358151393            1.0000000              1.0000000
D    1   1.00
      3.5000000              1.0000000
D    1   1.00
      0.8750000              1.0000000
F    1   1.00
      1.8500000              1.0000000
****
C     0
S    6   1.00
   3047.5249000              0.0018347
    457.3695100              0.0140373
    103.9486900              0.0688426
     29.2101550              0.2321844
      9.2866630              0.4679413
      3.1639270              0.3623120
SP   3   1.00
      7.8682724             -0.1193324              0.0689991
      1.8812885             -0.1608542              0.3164240
      0.5442493              1.1434564              0.7443083
SP   1   1.00
      0.1687144              1.0000000              1.0000000
D    1   1.00
      1.2520000              1.0000000
D    1   1.00
      0.3130000              1.0000000
F    1   1.00
      0.8000000              1.0000000
****
N     0
S    6   1.00
   4173.5110000              0.0018348
    627.4579000              0.0139950
    142.9021000              0.0685870
     40.2343300              0.2322410
     12.8202100              0.4690700
      4.3904370              0.3604550
SP   3   1.00
     11.6263580             -0.1149610              0.0675800
      2.7162800             -0.1691180              0.3239070
      0.7722180              1.1458520              0.7408950
SP   1   1.00
      0.2120313              1.0000000              1.0000000
D    1   1.00
      1.8260000              1.0000000
D    1   1.00
      0.4565000              1.0000000
F    1   1.00
      1.0000000              1.0000000
****
}

set {
opt_type min
reference rhf
freeze_core true
e_convergence 10
d_convergence 10
ensure_bt_convergence true
dft_spherical_points 590
dft_radial_points 99
}

e = energy('b3lyp')

print_out('Grab this energy {0}'.format(e))
--------------------------------------------------------------------------

    Molecular point group: c1

    Geometry (in Bohr), charge = 0, multiplicity = 1:

       Center              X                  Y                   Z               Mass
    ------------   -----------------  -----------------  -----------------  -----------------
         N            4.431196095016     0.002481864518     0.001451773774    14.003074004430
         C            2.238063206416    -0.007005776382    -0.004049385326    12.000000000000
         C           -0.576142460384     0.003186477818     0.001842008074    12.000000000000
         F           -1.438623617284     1.176009104018    -2.041758550726    18.998403162730
         F           -1.436583696184    -2.353753516482    -0.001230464426    18.998403162730
         F           -1.440598341184     1.178327506218     2.043313212474    18.998403162730

  Charge       = 0
  Multiplicity = 1
  Basis Set: ANONYMOUS3F866C82
    Blend: 6-31G_2DFP_
  Basis Set: (ANONYMOUS3F866C82 AUX)
    Blend: DEF2-UNIVERSAL-JKFIT

    Orbital Energies [Eh]
    ---------------------

    Doubly Occupied:

       1A    -24.765092     2A    -24.764647     3A    -24.764206
       4A    -14.389810     5A    -10.497342     6A    -10.265179
       7A     -1.357861     8A     -1.266120     9A     -1.265485
      10A     -0.946071    11A     -0.784492    12A     -0.670021
      13A     -0.633806    14A     -0.633445    15A     -0.502777
      16A     -0.502632    17A     -0.468895    18A     -0.468484
      19A     -0.464450    20A     -0.442751    21A     -0.400408
      22A     -0.380881    23A     -0.380790

  @DF-RKS Final Energy:  -430.45976931407728

   => Energetics <=

    Nuclear Repulsion Energy =            231.4157898737570065
    One-Electron Energy =               -1053.2334403989048042
    Two-Electron Energy =                 431.0492553076123272
    DFT Exchange-Correlation Energy =     -39.6913740965418356
    Empirical Dispersion Energy =           0.0000000000000000
    VV10 Nonlocal Energy =                  0.0000000000000000
    Total Energy =                       -430.4597693140772776

  Dipole Moment: [D]
     X:    -1.5101      Y:     0.0048      Z:     0.0028     Total:     1.5102

*** Psi4 exiting successfully. Buy a developer a beer!
