                               Psi4 1.4a2.dev629

  ==> Input File <==

--------------------------------------------------------------------------
import os
memory 14 GB

molecule {
 N    4.4258907647   -0.0002255576    0.0003859898
 X    2.2380672400    1.0000000000   -0.0000000000
 C    2.2367764263    0.0007430603   -0.0012825912
 X    2.2380672400    0.0000000000    1.0000000000
 C   -0.5724270208   -0.0023608818    0.0040900508
 F   -1.4379951334    1.1764975951   -2.0377538235
 F   -1.4374645449   -2.3498747188   -0.0003271536
 F   -1.4374671119    1.1752205029    2.0348875277
units bohr
}

basis {

assign 6-31g_2dfp_

[ 6-31g_2dfp_ ]
spherical

!----------------------------------------------------------------------
! Basis Set Exchange
! Version v0.8.13
! https://www.basissetexchange.org
!----------------------------------------------------------------------
!   Basis set: 6-31G(2df,p)
! Description: 6-31G(2df,p)
!        Role: orbital
!     Version: 0  (Data from the original Basis Set Exchange)
!----------------------------------------------------------------------

****
F     0
S    6   1.00
   7001.7130900              0.0018196169
   1051.3660900              0.0139160796
    239.2856900              0.0684053245
     67.3974453              0.233185760
     21.5199573              0.471267439
      7.40310130             0.356618546
SP   3   1.00
     20.8479528             -0.108506975            0.0716287243
      4.80830834            -0.146451658            0.3459121030
      1.34406986             1.128688580            0.7224699570
SP   1   1.00
      0.358151393            1.0000000              1.0000000
D    1   1.00
      3.5000000              1.0000000
D    1   1.00
      0.8750000              1.0000000
F    1   1.00
      1.8500000              1.0000000
****
C     0
S    6   1.00
   3047.5249000              0.0018347
    457.3695100              0.0140373
    103.9486900              0.0688426
     29.2101550              0.2321844
      9.2866630              0.4679413
      3.1639270              0.3623120
SP   3   1.00
      7.8682724             -0.1193324              0.0689991
      1.8812885             -0.1608542              0.3164240
      0.5442493              1.1434564              0.7443083
SP   1   1.00
      0.1687144              1.0000000              1.0000000
D    1   1.00
      1.2520000              1.0000000
D    1   1.00
      0.3130000              1.0000000
F    1   1.00
      0.8000000              1.0000000
****
N     0
S    6   1.00
   4173.5110000              0.0018348
    627.4579000              0.0139950
    142.9021000              0.0685870
     40.2343300              0.2322410
     12.8202100              0.4690700
      4.3904370              0.3604550
SP   3   1.00
     11.6263580             -0.1149610              0.0675800
      2.7162800             -0.1691180              0.3239070
      0.7722180              1.1458520              0.7408950
SP   1   1.00
      0.2120313              1.0000000              1.0000000
D    1   1.00
      1.8260000              1.0000000
D    1   1.00
      0.4565000              1.0000000
F    1   1.00
      1.0000000              1.0000000
****
}

set {
opt_type min
reference rhf
freeze_core true
e_convergence 10
d_convergence 10
ensure_bt_convergence true
dft_spherical_points 590
dft_radial_points 99
}

e = energy('b3lyp')

print_out('Grab this energy {0}'.format(e))
--------------------------------------------------------------------------

    Molecular point group: c1

    Geometry (in Bohr), charge = 0, multiplicity = 1:

       Center              X                  Y                   Z               Mass
    ------------   -----------------  -----------------  -----------------  -----------------
         N            4.425790270168    -0.000356601057     0.000613108433    14.003074004430
         C            2.236675931768     0.000612016843    -0.001055472567    12.000000000000
         C           -0.572527515332    -0.002491925257     0.004317169433    12.000000000000
         F           -1.438095627932     1.176366551643    -2.037526704867    18.998403162730
         F           -1.437565039432    -2.350005762257    -0.000100034967    18.998403162730
         F           -1.437567606432     1.175089459443     2.035114646333    18.998403162730

  Charge       = 0
  Multiplicity = 1
  Basis Set: ANONYMOUSBB29384A
    Blend: 6-31G_2DFP_
  Basis Set: (ANONYMOUSBB29384A AUX)
    Blend: DEF2-UNIVERSAL-JKFIT

    Orbital Energies [Eh]
    ---------------------

    Doubly Occupied:

       1A    -24.764984     2A    -24.764968     3A    -24.763012
       4A    -14.389363     5A    -10.496556     6A    -10.264507
       7A     -1.359235     8A     -1.267357     9A     -1.265035
      10A     -0.946978    11A     -0.784895    12A     -0.670815
      13A     -0.634490    14A     -0.633714    15A     -0.503002
      16A     -0.502993    17A     -0.468996    18A     -0.468079
      19A     -0.464534    20A     -0.442415    21A     -0.400403
      22A     -0.381429    23A     -0.381349

  @DF-RKS Final Energy:  -430.45976685907385

   => Energetics <=

    Nuclear Repulsion Energy =            231.8056264810925029
    One-Electron Energy =               -1054.0020266177320991
    Two-Electron Energy =                 431.4341263791531560
    DFT Exchange-Correlation Energy =     -39.6974931015874688
    Empirical Dispersion Energy =           0.0000000000000000
    VV10 Nonlocal Energy =                  0.0000000000000000
    Total Energy =                       -430.4597668590738522

  Dipole Moment: [D]
     X:    -1.5029      Y:    -0.0132      Z:     0.0228     Total:     1.5032

*** Psi4 exiting successfully. Buy a developer a beer!
