                               Psi4 1.4a2.dev629

  ==> Input File <==

--------------------------------------------------------------------------
import os
memory 14 GB

molecule {
 N    4.4258746807   -0.0022997123   -0.0013205552
 X    2.2380672400    1.0000000000   -0.0000000000
 C    2.2367789836    0.0057060365    0.0032887367
 X    2.2380672400    0.0000000000    1.0000000000
 C   -0.5724246737    0.0004132147    0.0002383833
 F   -1.4376437450    1.1766422553   -2.0352700189
 F   -1.4398558173   -2.3546500052    0.0006813215
 F   -1.4354160483    1.1741882110    2.0323821327
units bohr
}

basis {

assign 6-31g_2dfp_

[ 6-31g_2dfp_ ]
spherical

!----------------------------------------------------------------------
! Basis Set Exchange
! Version v0.8.13
! https://www.basissetexchange.org
!----------------------------------------------------------------------
!   Basis set: 6-31G(2df,p)
! Description: 6-31G(2df,p)
!        Role: orbital
!     Version: 0  (Data from the original Basis Set Exchange)
!----------------------------------------------------------------------

****
F     0
S    6   1.00
   7001.7130900              0.0018196169
   1051.3660900              0.0139160796
    239.2856900              0.0684053245
     67.3974453              0.233185760
     21.5199573              0.471267439
      7.40310130             0.356618546
SP   3   1.00
     20.8479528             -0.108506975            0.0716287243
      4.80830834            -0.146451658            0.3459121030
      1.34406986             1.128688580            0.7224699570
SP   1   1.00
      0.358151393            1.0000000              1.0000000
D    1   1.00
      3.5000000              1.0000000
D    1   1.00
      0.8750000              1.0000000
F    1   1.00
      1.8500000              1.0000000
****
C     0
S    6   1.00
   3047.5249000              0.0018347
    457.3695100              0.0140373
    103.9486900              0.0688426
     29.2101550              0.2321844
      9.2866630              0.4679413
      3.1639270              0.3623120
SP   3   1.00
      7.8682724             -0.1193324              0.0689991
      1.8812885             -0.1608542              0.3164240
      0.5442493              1.1434564              0.7443083
SP   1   1.00
      0.1687144              1.0000000              1.0000000
D    1   1.00
      1.2520000              1.0000000
D    1   1.00
      0.3130000              1.0000000
F    1   1.00
      0.8000000              1.0000000
****
N     0
S    6   1.00
   4173.5110000              0.0018348
    627.4579000              0.0139950
    142.9021000              0.0685870
     40.2343300              0.2322410
     12.8202100              0.4690700
      4.3904370              0.3604550
SP   3   1.00
     11.6263580             -0.1149610              0.0675800
      2.7162800             -0.1691180              0.3239070
      0.7722180              1.1458520              0.7408950
SP   1   1.00
      0.2120313              1.0000000              1.0000000
D    1   1.00
      1.8260000              1.0000000
D    1   1.00
      0.4565000              1.0000000
F    1   1.00
      1.0000000              1.0000000
****
}

set {
opt_type min
reference rhf
freeze_core true
e_convergence 10
d_convergence 10
ensure_bt_convergence true
dft_spherical_points 590
dft_radial_points 99
}

e = energy('b3lyp')

print_out('Grab this energy {0}'.format(e))
--------------------------------------------------------------------------

    Molecular point group: c1

    Geometry (in Bohr), charge = 0, multiplicity = 1:

       Center              X                  Y                   Z               Mass
    ------------   -----------------  -----------------  -----------------  -----------------
         N            4.425773701718    -0.001969841423    -0.001130155992    14.003074004430
         C            2.236678004618     0.006035907377     0.003479135908    12.000000000000
         C           -0.572525652682     0.000743085577     0.000428782508    12.000000000000
         F           -1.437744723982     1.176972126177    -2.035079619692    18.998403162730
         F           -1.439956796282    -2.354320134323     0.000871720708    18.998403162730
         F           -1.435517027282     1.174518081877     2.032572531908    18.998403162730

  Charge       = 0
  Multiplicity = 1
  Basis Set: ANONYMOUS35ABC81D
    Blend: 6-31G_2DFP_
  Basis Set: (ANONYMOUS35ABC81D AUX)
    Blend: DEF2-UNIVERSAL-JKFIT

    Orbital Energies [Eh]
    ---------------------

    Doubly Occupied:

       1A    -24.764859     2A    -24.764320     3A    -24.763784
       4A    -14.389364     5A    -10.496555     6A    -10.264506
       7A     -1.359222     8A     -1.266874     9A     -1.265527
      10A     -0.946979    11A     -0.784894    12A     -0.670805
      13A     -0.634262    14A     -0.633940    15A     -0.503047
      16A     -0.502934    17A     -0.468735    18A     -0.468305
      19A     -0.464574    20A     -0.442430    21A     -0.400404
      22A     -0.381402    23A     -0.381378

  @DF-RKS Final Energy:  -430.45976481909895

   => Energetics <=

    Nuclear Repulsion Energy =            231.8055957721124969
    One-Electron Energy =               -1054.0019795203818376
    Two-Electron Energy =                 431.4341091157576784
    DFT Exchange-Correlation Energy =     -39.6974901865872738
    Empirical Dispersion Energy =           0.0000000000000000
    VV10 Nonlocal Energy =                  0.0000000000000000
    Total Energy =                       -430.4597648190989503

  Dipole Moment: [D]
     X:    -1.5029      Y:     0.0150      Z:     0.0087     Total:     1.5030

*** Psi4 exiting successfully. Buy a developer a beer!
