                               Psi4 1.4a2.dev629

  ==> Input File <==

--------------------------------------------------------------------------
import os
memory 14 GB

molecule {
 N    4.4258715943   -0.0036916637   -0.0021282136
 X    2.2380672400    1.0000000000    0.0000000000
 C    2.2367782614    0.0047845032    0.0027547217
 X    2.2380672400    0.0000000000    1.0000000000
 C   -0.5724298314    0.0017340923    0.0009960925
 F   -1.4376321737    1.1693776028   -2.0394565023
 F   -1.4369047688   -2.3467189366   -0.0035065992
 F   -1.4383697018    1.1745144019    2.0413405009
units bohr
}

basis {

assign 6-31g_2dfp_

[ 6-31g_2dfp_ ]
spherical

!----------------------------------------------------------------------
! Basis Set Exchange
! Version v0.8.13
! https://www.basissetexchange.org
!----------------------------------------------------------------------
!   Basis set: 6-31G(2df,p)
! Description: 6-31G(2df,p)
!        Role: orbital
!     Version: 0  (Data from the original Basis Set Exchange)
!----------------------------------------------------------------------

****
F     0
S    6   1.00
   7001.7130900              0.0018196169
   1051.3660900              0.0139160796
    239.2856900              0.0684053245
     67.3974453              0.233185760
     21.5199573              0.471267439
      7.40310130             0.356618546
SP   3   1.00
     20.8479528             -0.108506975            0.0716287243
      4.80830834            -0.146451658            0.3459121030
      1.34406986             1.128688580            0.7224699570
SP   1   1.00
      0.358151393            1.0000000              1.0000000
D    1   1.00
      3.5000000              1.0000000
D    1   1.00
      0.8750000              1.0000000
F    1   1.00
      1.8500000              1.0000000
****
C     0
S    6   1.00
   3047.5249000              0.0018347
    457.3695100              0.0140373
    103.9486900              0.0688426
     29.2101550              0.2321844
      9.2866630              0.4679413
      3.1639270              0.3623120
SP   3   1.00
      7.8682724             -0.1193324              0.0689991
      1.8812885             -0.1608542              0.3164240
      0.5442493              1.1434564              0.7443083
SP   1   1.00
      0.1687144              1.0000000              1.0000000
D    1   1.00
      1.2520000              1.0000000
D    1   1.00
      0.3130000              1.0000000
F    1   1.00
      0.8000000              1.0000000
****
N     0
S    6   1.00
   4173.5110000              0.0018348
    627.4579000              0.0139950
    142.9021000              0.0685870
     40.2343300              0.2322410
     12.8202100              0.4690700
      4.3904370              0.3604550
SP   3   1.00
     11.6263580             -0.1149610              0.0675800
      2.7162800             -0.1691180              0.3239070
      0.7722180              1.1458520              0.7408950
SP   1   1.00
      0.2120313              1.0000000              1.0000000
D    1   1.00
      1.8260000              1.0000000
D    1   1.00
      0.4565000              1.0000000
F    1   1.00
      1.0000000              1.0000000
****
}

set {
opt_type min
reference rhf
freeze_core true
e_convergence 10
d_convergence 10
ensure_bt_convergence true
dft_spherical_points 590
dft_radial_points 99
}

e = energy('b3lyp')

print_out('Grab this energy {0}'.format(e))
--------------------------------------------------------------------------

    Molecular point group: c1

    Geometry (in Bohr), charge = 0, multiplicity = 1:

       Center              X                  Y                   Z               Mass
    ------------   -----------------  -----------------  -----------------  -----------------
         N            4.425770019860    -0.003405567100    -0.001963804498    14.003074004430
         C            2.236676686960     0.005070599800     0.002919130802    12.000000000000
         C           -0.572531405840     0.002020188900     0.001160501602    12.000000000000
         F           -1.437733748140     1.169663699400    -2.039292093198    18.998403162730
         F           -1.437006343240    -2.346432840000    -0.003342190098    18.998403162730
         F           -1.438471276240     1.174800498500     2.041504910002    18.998403162730

  Charge       = 0
  Multiplicity = 1
  Basis Set: ANONYMOUS7AD46D05
    Blend: 6-31G_2DFP_
  Basis Set: (ANONYMOUS7AD46D05 AUX)
    Blend: DEF2-UNIVERSAL-JKFIT

    Orbital Energies [Eh]
    ---------------------

    Doubly Occupied:

       1A    -24.764420     2A    -24.764319     3A    -24.764221
       4A    -14.389363     5A    -10.496556     6A    -10.264507
       7A     -1.359209     8A     -1.266208     9A     -1.266200
      10A     -0.946979    11A     -0.784893    12A     -0.670801
      13A     -0.634207    14A     -0.633987    15A     -0.503264
      16A     -0.502714    17A     -0.468675    18A     -0.468370
      19A     -0.464577    20A     -0.442429    21A     -0.400403
      22A     -0.381409    23A     -0.381371

  @DF-RKS Final Energy:  -430.45976603933366

   => Energetics <=

    Nuclear Repulsion Energy =            231.8056961195624126
    One-Electron Energy =               -1054.0022214363659714
    Two-Electron Energy =                 431.4342465406044766
    DFT Exchange-Correlation Energy =     -39.6974872631346045
    Empirical Dispersion Energy =           0.0000000000000000
    VV10 Nonlocal Energy =                  0.0000000000000000
    Total Energy =                       -430.4597660393336582

  Dipole Moment: [D]
     X:    -1.5029      Y:     0.0037      Z:     0.0021     Total:     1.5029

*** Psi4 exiting successfully. Buy a developer a beer!
