                               Psi4 1.4a2.dev629

  ==> Input File <==

--------------------------------------------------------------------------
import os
memory 14 GB

molecule {
 N    4.4350237334    0.0037298060    0.0021565644
 X    2.2380672400    1.0000000000   -0.0000000000
 C    2.2353346809   -0.0048239637   -0.0027927698
 X    2.2380672400   -0.0000000000    1.0000000000
 C   -0.5807501790   -0.0017352016   -0.0010068927
 F   -1.4374281964    1.1832374303   -2.0353801711
 F   -1.4381844240   -2.3585077763    0.0035139664
 F   -1.4366822348    1.1780997052    2.0335093029
units bohr
}

basis {

assign 6-31g_2dfp_

[ 6-31g_2dfp_ ]
spherical

!----------------------------------------------------------------------
! Basis Set Exchange
! Version v0.8.13
! https://www.basissetexchange.org
!----------------------------------------------------------------------
!   Basis set: 6-31G(2df,p)
! Description: 6-31G(2df,p)
!        Role: orbital
!     Version: 0  (Data from the original Basis Set Exchange)
!----------------------------------------------------------------------

****
F     0
S    6   1.00
   7001.7130900              0.0018196169
   1051.3660900              0.0139160796
    239.2856900              0.0684053245
     67.3974453              0.233185760
     21.5199573              0.471267439
      7.40310130             0.356618546
SP   3   1.00
     20.8479528             -0.108506975            0.0716287243
      4.80830834            -0.146451658            0.3459121030
      1.34406986             1.128688580            0.7224699570
SP   1   1.00
      0.358151393            1.0000000              1.0000000
D    1   1.00
      3.5000000              1.0000000
D    1   1.00
      0.8750000              1.0000000
F    1   1.00
      1.8500000              1.0000000
****
C     0
S    6   1.00
   3047.5249000              0.0018347
    457.3695100              0.0140373
    103.9486900              0.0688426
     29.2101550              0.2321844
      9.2866630              0.4679413
      3.1639270              0.3623120
SP   3   1.00
      7.8682724             -0.1193324              0.0689991
      1.8812885             -0.1608542              0.3164240
      0.5442493              1.1434564              0.7443083
SP   1   1.00
      0.1687144              1.0000000              1.0000000
D    1   1.00
      1.2520000              1.0000000
D    1   1.00
      0.3130000              1.0000000
F    1   1.00
      0.8000000              1.0000000
****
N     0
S    6   1.00
   4173.5110000              0.0018348
    627.4579000              0.0139950
    142.9021000              0.0685870
     40.2343300              0.2322410
     12.8202100              0.4690700
      4.3904370              0.3604550
SP   3   1.00
     11.6263580             -0.1149610              0.0675800
      2.7162800             -0.1691180              0.3239070
      0.7722180              1.1458520              0.7408950
SP   1   1.00
      0.2120313              1.0000000              1.0000000
D    1   1.00
      1.8260000              1.0000000
D    1   1.00
      0.4565000              1.0000000
F    1   1.00
      1.0000000              1.0000000
****
}

set {
opt_type min
reference rhf
freeze_core true
e_convergence 10
d_convergence 10
ensure_bt_convergence true
dft_spherical_points 590
dft_radial_points 99
}

e = energy('b3lyp')

print_out('Grab this energy {0}'.format(e))
--------------------------------------------------------------------------

    Molecular point group: c1

    Geometry (in Bohr), charge = 0, multiplicity = 1:

       Center              X                  Y                   Z               Mass
    ------------   -----------------  -----------------  -----------------  -----------------
         N            4.434684112976     0.003442726364     0.001990047466    14.003074004430
         C            2.234995060476    -0.005111043336    -0.002959286734    12.000000000000
         C           -0.581089799424    -0.002022281236    -0.001173409634    12.000000000000
         F           -1.437767816824     1.182950350664    -2.035546688034    18.998403162730
         F           -1.438524044424    -2.358794855936     0.003347449466    18.998403162730
         F           -1.437021855224     1.177812625564     2.033342785966    18.998403162730

  Charge       = 0
  Multiplicity = 1
  Basis Set: ANONYMOUS9DA4976B
    Blend: 6-31G_2DFP_
  Basis Set: (ANONYMOUS9DA4976B AUX)
    Blend: DEF2-UNIVERSAL-JKFIT

    Orbital Energies [Eh]
    ---------------------

    Doubly Occupied:

       1A    -24.765048     2A    -24.764946     3A    -24.764846
       4A    -14.390102     5A    -10.497196     6A    -10.265371
       7A     -1.359238     8A     -1.266822     9A     -1.266818
      10A     -0.944273    11A     -0.784225    12A     -0.670651
      13A     -0.634593    14A     -0.634375    15A     -0.503559
      16A     -0.503012    17A     -0.469435    18A     -0.469135
      19A     -0.464475    20A     -0.443160    21A     -0.400069
      22A     -0.379605    23A     -0.379567

  @DF-RKS Final Energy:  -430.45958559817848

   => Energetics <=

    Nuclear Repulsion Energy =            231.5106854039158009
    One-Electron Energy =               -1053.4135057854111892
    Two-Electron Energy =                 431.1341179122893550
    DFT Exchange-Correlation Energy =     -39.6908831289724162
    Empirical Dispersion Energy =           0.0000000000000000
    VV10 Nonlocal Energy =                  0.0000000000000000
    Total Energy =                       -430.4595855981784780

  Dipole Moment: [D]
     X:    -1.5366      Y:    -0.0036      Z:    -0.0021     Total:     1.5366

*** Psi4 exiting successfully. Buy a developer a beer!
