                               Psi4 1.4a2.dev629

  ==> Input File <==

--------------------------------------------------------------------------
import os
memory 14 GB

molecule {
 N    4.4274105892   -0.0002238797    0.0003830824
 X    2.2380672400    1.0000000000   -0.0000000000
 C    2.2408020694    0.0007433386   -0.0012830748
 X    2.2380672400    0.0000000000    1.0000000000
 C   -0.5715645285   -0.0023644873    0.0040962976
 F   -1.4401267245    1.1801119399   -2.0440140521
 F   -1.4396027279   -2.3571113850   -0.0003336630
 F   -1.4396052976    1.1788444735    2.0411514099
units bohr
}

basis {

assign 6-31g_2dfp_

[ 6-31g_2dfp_ ]
spherical

!----------------------------------------------------------------------
! Basis Set Exchange
! Version v0.8.13
! https://www.basissetexchange.org
!----------------------------------------------------------------------
!   Basis set: 6-31G(2df,p)
! Description: 6-31G(2df,p)
!        Role: orbital
!     Version: 0  (Data from the original Basis Set Exchange)
!----------------------------------------------------------------------

****
F     0
S    6   1.00
   7001.7130900              0.0018196169
   1051.3660900              0.0139160796
    239.2856900              0.0684053245
     67.3974453              0.233185760
     21.5199573              0.471267439
      7.40310130             0.356618546
SP   3   1.00
     20.8479528             -0.108506975            0.0716287243
      4.80830834            -0.146451658            0.3459121030
      1.34406986             1.128688580            0.7224699570
SP   1   1.00
      0.358151393            1.0000000              1.0000000
D    1   1.00
      3.5000000              1.0000000
D    1   1.00
      0.8750000              1.0000000
F    1   1.00
      1.8500000              1.0000000
****
C     0
S    6   1.00
   3047.5249000              0.0018347
    457.3695100              0.0140373
    103.9486900              0.0688426
     29.2101550              0.2321844
      9.2866630              0.4679413
      3.1639270              0.3623120
SP   3   1.00
      7.8682724             -0.1193324              0.0689991
      1.8812885             -0.1608542              0.3164240
      0.5442493              1.1434564              0.7443083
SP   1   1.00
      0.1687144              1.0000000              1.0000000
D    1   1.00
      1.2520000              1.0000000
D    1   1.00
      0.3130000              1.0000000
F    1   1.00
      0.8000000              1.0000000
****
N     0
S    6   1.00
   4173.5110000              0.0018348
    627.4579000              0.0139950
    142.9021000              0.0685870
     40.2343300              0.2322410
     12.8202100              0.4690700
      4.3904370              0.3604550
SP   3   1.00
     11.6263580             -0.1149610              0.0675800
      2.7162800             -0.1691180              0.3239070
      0.7722180              1.1458520              0.7408950
SP   1   1.00
      0.2120313              1.0000000              1.0000000
D    1   1.00
      1.8260000              1.0000000
D    1   1.00
      0.4565000              1.0000000
F    1   1.00
      1.0000000              1.0000000
****
}

set {
opt_type min
reference rhf
freeze_core true
e_convergence 10
d_convergence 10
ensure_bt_convergence true
dft_spherical_points 590
dft_radial_points 99
}

e = energy('b3lyp')

print_out('Grab this energy {0}'.format(e))
--------------------------------------------------------------------------

    Molecular point group: c1

    Geometry (in Bohr), charge = 0, multiplicity = 1:

       Center              X                  Y                   Z               Mass
    ------------   -----------------  -----------------  -----------------  -----------------
         N            4.427750114871    -0.000355080018     0.000610472719    14.003074004430
         C            2.241141595071     0.000612138282    -0.001055684481    12.000000000000
         C           -0.571225002829    -0.002495687618     0.004323687919    12.000000000000
         F           -1.439787198829     1.179980739582    -2.043786661781    18.998403162730
         F           -1.439263202229    -2.357242585318    -0.000106272681    18.998403162730
         F           -1.439265771929     1.178713273182     2.041378800219    18.998403162730

  Charge       = 0
  Multiplicity = 1
  Basis Set: ANONYMOUS511F629C
    Blend: 6-31G_2DFP_
  Basis Set: (ANONYMOUS511F629C AUX)
    Blend: DEF2-UNIVERSAL-JKFIT

    Orbital Energies [Eh]
    ---------------------

    Doubly Occupied:

       1A    -24.765014     2A    -24.764998     3A    -24.763046
       4A    -14.389510     5A    -10.497489     6A    -10.264979
       7A     -1.356534     8A     -1.265928     9A     -1.263622
      10A     -0.947865    11A     -0.784770    12A     -0.669413
      13A     -0.633168    14A     -0.632384    15A     -0.502142
      16A     -0.502127    17A     -0.468564    18A     -0.467657
      19A     -0.464383    20A     -0.442330    21A     -0.400732
      22A     -0.382129    23A     -0.382049

  @DF-RKS Final Energy:  -430.45987480850073

   => Energetics <=

    Nuclear Repulsion Energy =            231.3216332624195672
    One-Electron Energy =               -1053.0545352834737969
    Two-Electron Energy =                 430.9649415732071134
    DFT Exchange-Correlation Energy =     -39.6919143606536267
    Empirical Dispersion Energy =           0.0000000000000000
    VV10 Nonlocal Energy =                  0.0000000000000000
    Total Energy =                       -430.4598748085007287

  Dipole Moment: [D]
     X:    -1.4840      Y:    -0.0132      Z:     0.0228     Total:     1.4842

*** Psi4 exiting successfully. Buy a developer a beer!
