                               Psi4 1.4a2.dev629

  ==> Input File <==

--------------------------------------------------------------------------
import os
memory 14 GB

molecule {
 N    4.4205030491   -0.0002496262   -0.0001403551
 X    2.2380672400    1.0000000000   -0.0000000000
 C    2.2297689649    0.0011183145    0.0006477784
 X    2.2380672400    0.0000000000    1.0000000000
 C   -0.5801534620   -0.0037450336   -0.0021603664
 F   -1.4309427708    1.1812494922   -2.0441320438
 F   -1.4307699737   -2.3597921158    0.0004531336
 F   -1.4310924275    1.1814189690    2.0453318534
units bohr
}

basis {

assign 6-31g_2dfp_

[ 6-31g_2dfp_ ]
spherical

!----------------------------------------------------------------------
! Basis Set Exchange
! Version v0.8.13
! https://www.basissetexchange.org
!----------------------------------------------------------------------
!   Basis set: 6-31G(2df,p)
! Description: 6-31G(2df,p)
!        Role: orbital
!     Version: 0  (Data from the original Basis Set Exchange)
!----------------------------------------------------------------------

****
F     0
S    6   1.00
   7001.7130900              0.0018196169
   1051.3660900              0.0139160796
    239.2856900              0.0684053245
     67.3974453              0.233185760
     21.5199573              0.471267439
      7.40310130             0.356618546
SP   3   1.00
     20.8479528             -0.108506975            0.0716287243
      4.80830834            -0.146451658            0.3459121030
      1.34406986             1.128688580            0.7224699570
SP   1   1.00
      0.358151393            1.0000000              1.0000000
D    1   1.00
      3.5000000              1.0000000
D    1   1.00
      0.8750000              1.0000000
F    1   1.00
      1.8500000              1.0000000
****
C     0
S    6   1.00
   3047.5249000              0.0018347
    457.3695100              0.0140373
    103.9486900              0.0688426
     29.2101550              0.2321844
      9.2866630              0.4679413
      3.1639270              0.3623120
SP   3   1.00
      7.8682724             -0.1193324              0.0689991
      1.8812885             -0.1608542              0.3164240
      0.5442493              1.1434564              0.7443083
SP   1   1.00
      0.1687144              1.0000000              1.0000000
D    1   1.00
      1.2520000              1.0000000
D    1   1.00
      0.3130000              1.0000000
F    1   1.00
      0.8000000              1.0000000
****
N     0
S    6   1.00
   4173.5110000              0.0018348
    627.4579000              0.0139950
    142.9021000              0.0685870
     40.2343300              0.2322410
     12.8202100              0.4690700
      4.3904370              0.3604550
SP   3   1.00
     11.6263580             -0.1149610              0.0675800
      2.7162800             -0.1691180              0.3239070
      0.7722180              1.1458520              0.7408950
SP   1   1.00
      0.2120313              1.0000000              1.0000000
D    1   1.00
      1.8260000              1.0000000
D    1   1.00
      0.4565000              1.0000000
F    1   1.00
      1.0000000              1.0000000
****
}

set {
opt_type min
reference rhf
freeze_core true
e_convergence 10
d_convergence 10
ensure_bt_convergence true
dft_spherical_points 590
dft_radial_points 99
}

e = energy('b3lyp')

print_out('Grab this energy {0}'.format(e))
--------------------------------------------------------------------------

    Molecular point group: c1

    Geometry (in Bohr), charge = 0, multiplicity = 1:

       Center              X                  Y                   Z               Mass
    ------------   -----------------  -----------------  -----------------  -----------------
         N            4.419033822433    -0.000456259472    -0.000259165904    14.003074004430
         C            2.228299738233     0.000911681228     0.000528967596    12.000000000000
         C           -0.581622688667    -0.003951666872    -0.002279177204    12.000000000000
         F           -1.432411997467     1.181042858928    -2.044250854604    18.998403162730
         F           -1.432239200367    -2.359998749072     0.000334322796    18.998403162730
         F           -1.432561654167     1.181212335728     2.045213042596    18.998403162730

  Charge       = 0
  Multiplicity = 1
  Basis Set: ANONYMOUSB00EA7BF
    Blend: 6-31G_2DFP_
  Basis Set: (ANONYMOUSB00EA7BF AUX)
    Blend: DEF2-UNIVERSAL-JKFIT

    Orbital Energies [Eh]
    ---------------------

    Doubly Occupied:

       1A    -24.766155     2A    -24.765175     3A    -24.764199
       4A    -14.388837     5A    -10.497323     6A    -10.264013
       7A     -1.357761     8A     -1.267399     9A     -1.265420
      10A     -0.946022    11A     -0.784892    12A     -0.670041
      13A     -0.634410    14A     -0.633718    15A     -0.502973
      16A     -0.502943    17A     -0.470068    18A     -0.469228
      19A     -0.463666    20A     -0.443505    21A     -0.399793
      22A     -0.380584    23A     -0.380517

  @DF-RKS Final Energy:  -430.45981396416556

   => Energetics <=

    Nuclear Repulsion Energy =            231.5050733258064497
    One-Electron Energy =               -1053.4050969128225006
    Two-Electron Energy =                 431.1330442872337585
    DFT Exchange-Correlation Energy =     -39.6928346643833265
    Empirical Dispersion Energy =           0.0000000000000000
    VV10 Nonlocal Energy =                  0.0000000000000000
    Total Energy =                       -430.4598139641655621

  Dipole Moment: [D]
     X:    -1.5408      Y:    -0.0199      Z:    -0.0114     Total:     1.5409

*** Psi4 exiting successfully. Buy a developer a beer!
