                               Psi4 1.4a2.dev629

  ==> Input File <==

--------------------------------------------------------------------------
import os
memory 14 GB

molecule {
 N    4.4330270663    0.0016224408   -0.0028689335
 X    2.2380672400    1.0000000000    0.0000000000
 C    2.2339912415   -0.0037651711    0.0065769327
 X    2.2380672400   -0.0000000000    1.0000000000
 C   -0.5729601380   -0.0001090050    0.0001998979
 F   -1.4413803761    1.1800348846   -2.0438829927
 F   -1.4376660896   -2.3549373529    0.0003605296
 F   -1.4376983242    1.1771542036    2.0396145660
units bohr
}

basis {

assign 6-31g_2dfp_

[ 6-31g_2dfp_ ]
spherical

!----------------------------------------------------------------------
! Basis Set Exchange
! Version v0.8.13
! https://www.basissetexchange.org
!----------------------------------------------------------------------
!   Basis set: 6-31G(2df,p)
! Description: 6-31G(2df,p)
!        Role: orbital
!     Version: 0  (Data from the original Basis Set Exchange)
!----------------------------------------------------------------------

****
F     0
S    6   1.00
   7001.7130900              0.0018196169
   1051.3660900              0.0139160796
    239.2856900              0.0684053245
     67.3974453              0.233185760
     21.5199573              0.471267439
      7.40310130             0.356618546
SP   3   1.00
     20.8479528             -0.108506975            0.0716287243
      4.80830834            -0.146451658            0.3459121030
      1.34406986             1.128688580            0.7224699570
SP   1   1.00
      0.358151393            1.0000000              1.0000000
D    1   1.00
      3.5000000              1.0000000
D    1   1.00
      0.8750000              1.0000000
F    1   1.00
      1.8500000              1.0000000
****
C     0
S    6   1.00
   3047.5249000              0.0018347
    457.3695100              0.0140373
    103.9486900              0.0688426
     29.2101550              0.2321844
      9.2866630              0.4679413
      3.1639270              0.3623120
SP   3   1.00
      7.8682724             -0.1193324              0.0689991
      1.8812885             -0.1608542              0.3164240
      0.5442493              1.1434564              0.7443083
SP   1   1.00
      0.1687144              1.0000000              1.0000000
D    1   1.00
      1.2520000              1.0000000
D    1   1.00
      0.3130000              1.0000000
F    1   1.00
      0.8000000              1.0000000
****
N     0
S    6   1.00
   4173.5110000              0.0018348
    627.4579000              0.0139950
    142.9021000              0.0685870
     40.2343300              0.2322410
     12.8202100              0.4690700
      4.3904370              0.3604550
SP   3   1.00
     11.6263580             -0.1149610              0.0675800
      2.7162800             -0.1691180              0.3239070
      0.7722180              1.1458520              0.7408950
SP   1   1.00
      0.2120313              1.0000000              1.0000000
D    1   1.00
      1.8260000              1.0000000
D    1   1.00
      0.4565000              1.0000000
F    1   1.00
      1.0000000              1.0000000
****
}

set {
opt_type min
reference rhf
freeze_core true
e_convergence 10
d_convergence 10
ensure_bt_convergence true
dft_spherical_points 590
dft_radial_points 99
}

e = energy('b3lyp')

print_out('Grab this energy {0}'.format(e))
--------------------------------------------------------------------------

    Molecular point group: c1

    Geometry (in Bohr), charge = 0, multiplicity = 1:

       Center              X                  Y                   Z               Mass
    ------------   -----------------  -----------------  -----------------  -----------------
         N            4.433057367417     0.001422348548    -0.002520551147    14.003074004430
         C            2.234021542617    -0.003965263352     0.006925315053    12.000000000000
         C           -0.572929836883    -0.000309097252     0.000548280253    12.000000000000
         F           -1.441350074983     1.179834792348    -2.043534610347    18.998403162730
         F           -1.437635788483    -2.355137445152     0.000708911953    18.998403162730
         F           -1.437668023083     1.176954111348     2.039962948353    18.998403162730

  Charge       = 0
  Multiplicity = 1
  Basis Set: ANONYMOUSF644A054
    Blend: 6-31G_2DFP_
  Basis Set: (ANONYMOUSF644A054 AUX)
    Blend: DEF2-UNIVERSAL-JKFIT

    Orbital Energies [Eh]
    ---------------------

    Doubly Occupied:

       1A    -24.764612     2A    -24.764595     3A    -24.763908
       4A    -14.391147     5A    -10.497040     6A    -10.266222
       7A     -1.357273     8A     -1.265803     9A     -1.264692
      10A     -0.945472    11A     -0.785356    12A     -0.670038
      13A     -0.633362    14A     -0.633083    15A     -0.502406
      16A     -0.502372    17A     -0.468477    18A     -0.468104
      19A     -0.464748    20A     -0.442442    21A     -0.401091
      22A     -0.380575    23A     -0.380537

  @DF-RKS Final Energy:  -430.45965830315066

   => Energetics <=

    Nuclear Repulsion Energy =            231.3633475996662980
    One-Electron Energy =               -1053.1345501345338107
    Two-Electron Energy =                 431.0005276463001564
    DFT Exchange-Correlation Energy =     -39.6889834145833120
    Empirical Dispersion Energy =           0.0000000000000000
    VV10 Nonlocal Energy =                  0.0000000000000000
    Total Energy =                       -430.4596583031506611

  Dipole Moment: [D]
     X:    -1.4881      Y:    -0.0075      Z:     0.0130     Total:     1.4881

*** Psi4 exiting successfully. Buy a developer a beer!
