                               Psi4 1.4a2.dev629

  ==> Input File <==

--------------------------------------------------------------------------
import os
memory 14 GB

molecule {
 N    4.4365256206   -0.0016647622    0.0028247819
 X    2.2380672400    1.0000000000   -0.0000000000
 C    2.2393469733    0.0038090174   -0.0065420706
 X    2.2380672400    0.0000000000    1.0000000000
 C   -0.5798937198    0.0001136179   -0.0001858140
 F   -1.4370723742    1.1790649681   -2.0422029660
 F   -1.4407804555   -2.3632798727   -0.0003686994
 F   -1.4408126643    1.1819570315    2.0464747680
units bohr
}

basis {

assign 6-31g_2dfp_

[ 6-31g_2dfp_ ]
spherical

!----------------------------------------------------------------------
! Basis Set Exchange
! Version v0.8.13
! https://www.basissetexchange.org
!----------------------------------------------------------------------
!   Basis set: 6-31G(2df,p)
! Description: 6-31G(2df,p)
!        Role: orbital
!     Version: 0  (Data from the original Basis Set Exchange)
!----------------------------------------------------------------------

****
F     0
S    6   1.00
   7001.7130900              0.0018196169
   1051.3660900              0.0139160796
    239.2856900              0.0684053245
     67.3974453              0.233185760
     21.5199573              0.471267439
      7.40310130             0.356618546
SP   3   1.00
     20.8479528             -0.108506975            0.0716287243
      4.80830834            -0.146451658            0.3459121030
      1.34406986             1.128688580            0.7224699570
SP   1   1.00
      0.358151393            1.0000000              1.0000000
D    1   1.00
      3.5000000              1.0000000
D    1   1.00
      0.8750000              1.0000000
F    1   1.00
      1.8500000              1.0000000
****
C     0
S    6   1.00
   3047.5249000              0.0018347
    457.3695100              0.0140373
    103.9486900              0.0688426
     29.2101550              0.2321844
      9.2866630              0.4679413
      3.1639270              0.3623120
SP   3   1.00
      7.8682724             -0.1193324              0.0689991
      1.8812885             -0.1608542              0.3164240
      0.5442493              1.1434564              0.7443083
SP   1   1.00
      0.1687144              1.0000000              1.0000000
D    1   1.00
      1.2520000              1.0000000
D    1   1.00
      0.3130000              1.0000000
F    1   1.00
      0.8000000              1.0000000
****
N     0
S    6   1.00
   4173.5110000              0.0018348
    627.4579000              0.0139950
    142.9021000              0.0685870
     40.2343300              0.2322410
     12.8202100              0.4690700
      4.3904370              0.3604550
SP   3   1.00
     11.6263580             -0.1149610              0.0675800
      2.7162800             -0.1691180              0.3239070
      0.7722180              1.1458520              0.7408950
SP   1   1.00
      0.2120313              1.0000000              1.0000000
D    1   1.00
      1.8260000              1.0000000
D    1   1.00
      0.4565000              1.0000000
F    1   1.00
      1.0000000              1.0000000
****
}

set {
opt_type min
reference rhf
freeze_core true
e_convergence 10
d_convergence 10
ensure_bt_convergence true
dft_spherical_points 590
dft_radial_points 99
}

e = energy('b3lyp')

print_out('Grab this energy {0}'.format(e))
--------------------------------------------------------------------------

    Molecular point group: c1

    Geometry (in Bohr), charge = 0, multiplicity = 1:

       Center              X                  Y                   Z               Mass
    ------------   -----------------  -----------------  -----------------  -----------------
         N            4.436623649215    -0.001463325422     0.002477683717    14.003074004430
         C            2.239445001915     0.004010454178    -0.006889168783    12.000000000000
         C           -0.579795691185     0.000315054678    -0.000532912183    12.000000000000
         F           -1.436974345585     1.179266404878    -2.042550064183    18.998403162730
         F           -1.440682426885    -2.363078435922    -0.000715797583    18.998403162730
         F           -1.440714635685     1.182158468278     2.046127669817    18.998403162730

  Charge       = 0
  Multiplicity = 1
  Basis Set: ANONYMOUS6BD76134
    Blend: 6-31G_2DFP_
  Basis Set: (ANONYMOUS6BD76134 AUX)
    Blend: DEF2-UNIVERSAL-JKFIT

    Orbital Energies [Eh]
    ---------------------

    Doubly Occupied:

       1A    -24.765438     2A    -24.764752     3A    -24.764736
       4A    -14.390255     5A    -10.498126     6A    -10.265847
       7A     -1.356546     8A     -1.265939     9A     -1.264851
      10A     -0.945160    11A     -0.784101    12A     -0.669244
      13A     -0.633296    14A     -0.633020    15A     -0.502442
      16A     -0.502403    17A     -0.469033    18A     -0.468661
      19A     -0.464336    20A     -0.443072    21A     -0.400405
      22A     -0.380305    23A     -0.380265

  @DF-RKS Final Energy:  -430.45970735889455

   => Energetics <=

    Nuclear Repulsion Energy =            231.0270744229044624
    One-Electron Energy =               -1052.4668368665106755
    Two-Electron Energy =                 430.6653560196238004
    DFT Exchange-Correlation Energy =     -39.6853009349121066
    Empirical Dispersion Energy =           0.0000000000000000
    VV10 Nonlocal Energy =                  0.0000000000000000
    Total Energy =                       -430.4597073588945477

  Dipole Moment: [D]
     X:    -1.5175      Y:     0.0075      Z:    -0.0130     Total:     1.5176

*** Psi4 exiting successfully. Buy a developer a beer!
