                               Psi4 1.4a2.dev629

  ==> Input File <==

--------------------------------------------------------------------------
import os
memory 14 GB

molecule {
 N    4.4274117077   -0.0002612569   -0.0001470830
 X    2.2380672400    1.0000000000   -0.0000000000
 C    2.2408029185    0.0011177970    0.0006474770
 X    2.2380672400    0.0000000000    1.0000000000
 C   -0.5715649656   -0.0037319753   -0.0021528218
 F   -1.4397864538    1.1798542930   -2.0417585150
 F   -1.4395970086   -2.3570209713    0.0004423710
 F   -1.4399528182    1.1800421135    2.0429685718
units bohr
}

basis {

assign 6-31g_2dfp_

[ 6-31g_2dfp_ ]
spherical

!----------------------------------------------------------------------
! Basis Set Exchange
! Version v0.8.13
! https://www.basissetexchange.org
!----------------------------------------------------------------------
!   Basis set: 6-31G(2df,p)
! Description: 6-31G(2df,p)
!        Role: orbital
!     Version: 0  (Data from the original Basis Set Exchange)
!----------------------------------------------------------------------

****
F     0
S    6   1.00
   7001.7130900              0.0018196169
   1051.3660900              0.0139160796
    239.2856900              0.0684053245
     67.3974453              0.233185760
     21.5199573              0.471267439
      7.40310130             0.356618546
SP   3   1.00
     20.8479528             -0.108506975            0.0716287243
      4.80830834            -0.146451658            0.3459121030
      1.34406986             1.128688580            0.7224699570
SP   1   1.00
      0.358151393            1.0000000              1.0000000
D    1   1.00
      3.5000000              1.0000000
D    1   1.00
      0.8750000              1.0000000
F    1   1.00
      1.8500000              1.0000000
****
C     0
S    6   1.00
   3047.5249000              0.0018347
    457.3695100              0.0140373
    103.9486900              0.0688426
     29.2101550              0.2321844
      9.2866630              0.4679413
      3.1639270              0.3623120
SP   3   1.00
      7.8682724             -0.1193324              0.0689991
      1.8812885             -0.1608542              0.3164240
      0.5442493              1.1434564              0.7443083
SP   1   1.00
      0.1687144              1.0000000              1.0000000
D    1   1.00
      1.2520000              1.0000000
D    1   1.00
      0.3130000              1.0000000
F    1   1.00
      0.8000000              1.0000000
****
N     0
S    6   1.00
   4173.5110000              0.0018348
    627.4579000              0.0139950
    142.9021000              0.0685870
     40.2343300              0.2322410
     12.8202100              0.4690700
      4.3904370              0.3604550
SP   3   1.00
     11.6263580             -0.1149610              0.0675800
      2.7162800             -0.1691180              0.3239070
      0.7722180              1.1458520              0.7408950
SP   1   1.00
      0.2120313              1.0000000              1.0000000
D    1   1.00
      1.8260000              1.0000000
D    1   1.00
      0.4565000              1.0000000
F    1   1.00
      1.0000000              1.0000000
****
}

set {
opt_type min
reference rhf
freeze_core true
e_convergence 10
d_convergence 10
ensure_bt_convergence true
dft_spherical_points 590
dft_radial_points 99
}

e = energy('b3lyp')

print_out('Grab this energy {0}'.format(e))
--------------------------------------------------------------------------

    Molecular point group: c1

    Geometry (in Bohr), charge = 0, multiplicity = 1:

       Center              X                  Y                   Z               Mass
    ------------   -----------------  -----------------  -----------------  -----------------
         N            4.427751322557    -0.000467577869    -0.000265713963    14.003074004430
         C            2.241142533357     0.000911476031     0.000528846037    12.000000000000
         C           -0.571225350743    -0.003938296269    -0.002271452763    12.000000000000
         F           -1.439446838943     1.179647972031    -2.041877145963    18.998403162730
         F           -1.439257393743    -2.357227292269     0.000323740037    18.998403162730
         F           -1.439613203343     1.179835792531     2.042849940837    18.998403162730

  Charge       = 0
  Multiplicity = 1
  Basis Set: ANONYMOUSD9CB059E
    Blend: 6-31G_2DFP_
  Basis Set: (ANONYMOUSD9CB059E AUX)
    Blend: DEF2-UNIVERSAL-JKFIT

    Orbital Energies [Eh]
    ---------------------

    Doubly Occupied:

       1A    -24.765329     2A    -24.764352     3A    -24.763377
       4A    -14.389510     5A    -10.497490     6A    -10.264979
       7A     -1.356523     8A     -1.265763     9A     -1.263795
      10A     -0.947865    11A     -0.784769    12A     -0.669408
      13A     -0.633119    14A     -0.632430    15A     -0.502146
      16A     -0.502118    17A     -0.468520    18A     -0.467687
      19A     -0.464402    20A     -0.442334    21A     -0.400732
      22A     -0.382123    23A     -0.382055

  @DF-RKS Final Energy:  -430.45987768839717

   => Energetics <=

    Nuclear Repulsion Energy =            231.3215433950341549
    One-Electron Energy =               -1053.0543764541564542
    Two-Electron Energy =                 430.9648661419499831
    DFT Exchange-Correlation Energy =     -39.6919107712248476
    Empirical Dispersion Energy =           0.0000000000000000
    VV10 Nonlocal Energy =                  0.0000000000000000
    Total Energy =                       -430.4598776883971709

  Dipole Moment: [D]
     X:    -1.4840      Y:    -0.0198      Z:    -0.0114     Total:     1.4841

*** Psi4 exiting successfully. Buy a developer a beer!
