                               Psi4 1.4a2.dev629

  ==> Input File <==

--------------------------------------------------------------------------
import os
memory 14 GB

molecule {
 N    4.4312025517   -0.0091200520   -0.0052651179
 X    2.2380672400    1.0000000000   -0.0000000000
 C    2.2380791618    0.0019015025    0.0010962978
 X    2.2380672400    0.0000000000    1.0000000000
 C   -0.5761490918   -0.0010328025   -0.0005923372
 F   -1.4386063643    1.1839902675   -2.0371525938
 F   -1.4251859773   -2.3565834006    0.0034032708
 F   -1.4520269001    1.1808444851    2.0385104803
units bohr
}

basis {

assign 6-31g_2dfp_

[ 6-31g_2dfp_ ]
spherical

!----------------------------------------------------------------------
! Basis Set Exchange
! Version v0.8.13
! https://www.basissetexchange.org
!----------------------------------------------------------------------
!   Basis set: 6-31G(2df,p)
! Description: 6-31G(2df,p)
!        Role: orbital
!     Version: 0  (Data from the original Basis Set Exchange)
!----------------------------------------------------------------------

****
F     0
S    6   1.00
   7001.7130900              0.0018196169
   1051.3660900              0.0139160796
    239.2856900              0.0684053245
     67.3974453              0.233185760
     21.5199573              0.471267439
      7.40310130             0.356618546
SP   3   1.00
     20.8479528             -0.108506975            0.0716287243
      4.80830834            -0.146451658            0.3459121030
      1.34406986             1.128688580            0.7224699570
SP   1   1.00
      0.358151393            1.0000000              1.0000000
D    1   1.00
      3.5000000              1.0000000
D    1   1.00
      0.8750000              1.0000000
F    1   1.00
      1.8500000              1.0000000
****
C     0
S    6   1.00
   3047.5249000              0.0018347
    457.3695100              0.0140373
    103.9486900              0.0688426
     29.2101550              0.2321844
      9.2866630              0.4679413
      3.1639270              0.3623120
SP   3   1.00
      7.8682724             -0.1193324              0.0689991
      1.8812885             -0.1608542              0.3164240
      0.5442493              1.1434564              0.7443083
SP   1   1.00
      0.1687144              1.0000000              1.0000000
D    1   1.00
      1.2520000              1.0000000
D    1   1.00
      0.3130000              1.0000000
F    1   1.00
      0.8000000              1.0000000
****
N     0
S    6   1.00
   4173.5110000              0.0018348
    627.4579000              0.0139950
    142.9021000              0.0685870
     40.2343300              0.2322410
     12.8202100              0.4690700
      4.3904370              0.3604550
SP   3   1.00
     11.6263580             -0.1149610              0.0675800
      2.7162800             -0.1691180              0.3239070
      0.7722180              1.1458520              0.7408950
SP   1   1.00
      0.2120313              1.0000000              1.0000000
D    1   1.00
      1.8260000              1.0000000
D    1   1.00
      0.4565000              1.0000000
F    1   1.00
      1.0000000              1.0000000
****
}

set {
opt_type min
reference rhf
freeze_core true
e_convergence 10
d_convergence 10
ensure_bt_convergence true
dft_spherical_points 590
dft_radial_points 99
}

e = energy('b3lyp')

print_out('Grab this energy {0}'.format(e))
--------------------------------------------------------------------------

    Molecular point group: c1

    Geometry (in Bohr), charge = 0, multiplicity = 1:

       Center              X                  Y                   Z               Mass
    ------------   -----------------  -----------------  -----------------  -----------------
         N            4.431203139408    -0.009535618970    -0.005504849363    14.003074004430
         C            2.238079749508     0.001485935530     0.000856566337    12.000000000000
         C           -0.576148504092    -0.001448369470    -0.000832068663    12.000000000000
         F           -1.438605776592     1.183574700530    -2.037392325263    18.998403162730
         F           -1.425185389592    -2.356998967570     0.003163539337    18.998403162730
         F           -1.452026312392     1.180428918130     2.038270748837    18.998403162730

  Charge       = 0
  Multiplicity = 1
  Basis Set: ANONYMOUS31DB8A68
    Blend: 6-31G_2DFP_
  Basis Set: (ANONYMOUS31DB8A68 AUX)
    Blend: DEF2-UNIVERSAL-JKFIT

    Orbital Energies [Eh]
    ---------------------

    Doubly Occupied:

       1A    -24.765801     2A    -24.764647     3A    -24.763500
       4A    -14.389809     5A    -10.497343     6A    -10.265177
       7A     -1.357890     8A     -1.267202     9A     -1.264386
      10A     -0.946069    11A     -0.784498    12A     -0.670030
      13A     -0.634167    14A     -0.633098    15A     -0.502991
      16A     -0.502434    17A     -0.469394    18A     -0.467996
      19A     -0.464439    20A     -0.442719    21A     -0.400403
      22A     -0.380884    23A     -0.380789

  @DF-RKS Final Energy:  -430.45975636096284

   => Energetics <=

    Nuclear Repulsion Energy =            231.4159827867400168
    One-Electron Energy =               -1053.2337493136183184
    Two-Electron Energy =                 431.0493937870700165
    DFT Exchange-Correlation Energy =     -39.6913836211544861
    Empirical Dispersion Energy =           0.0000000000000000
    VV10 Nonlocal Energy =                  0.0000000000000000
    Total Energy =                       -430.4597563609628423

  Dipole Moment: [D]
     X:    -1.5101      Y:    -0.0144      Z:    -0.0083     Total:     1.5102

*** Psi4 exiting successfully. Buy a developer a beer!
