                               Psi4 1.4a2.dev629

  ==> Input File <==

--------------------------------------------------------------------------
import os
memory 14 GB

molecule {
 N    4.4312017879   -0.0039270904   -0.0017502484
 X    2.2380672400    1.0000000000    0.0000000000
 C    2.2380643216    0.0055490374    0.0014751589
 X    2.2380672400    0.0000000000    1.0000000000
 C   -0.5761568578   -0.0006286923    0.0050964235
 F   -1.4389387368    1.1730540897   -2.0458661022
 F   -1.4376956099   -2.3509910926   -0.0038528067
 F   -1.4391615251    1.1769437482    2.0448975749
units bohr
}

basis {

assign 6-31g_2dfp_

[ 6-31g_2dfp_ ]
spherical

!----------------------------------------------------------------------
! Basis Set Exchange
! Version v0.8.13
! https://www.basissetexchange.org
!----------------------------------------------------------------------
!   Basis set: 6-31G(2df,p)
! Description: 6-31G(2df,p)
!        Role: orbital
!     Version: 0  (Data from the original Basis Set Exchange)
!----------------------------------------------------------------------

****
F     0
S    6   1.00
   7001.7130900              0.0018196169
   1051.3660900              0.0139160796
    239.2856900              0.0684053245
     67.3974453              0.233185760
     21.5199573              0.471267439
      7.40310130             0.356618546
SP   3   1.00
     20.8479528             -0.108506975            0.0716287243
      4.80830834            -0.146451658            0.3459121030
      1.34406986             1.128688580            0.7224699570
SP   1   1.00
      0.358151393            1.0000000              1.0000000
D    1   1.00
      3.5000000              1.0000000
D    1   1.00
      0.8750000              1.0000000
F    1   1.00
      1.8500000              1.0000000
****
C     0
S    6   1.00
   3047.5249000              0.0018347
    457.3695100              0.0140373
    103.9486900              0.0688426
     29.2101550              0.2321844
      9.2866630              0.4679413
      3.1639270              0.3623120
SP   3   1.00
      7.8682724             -0.1193324              0.0689991
      1.8812885             -0.1608542              0.3164240
      0.5442493              1.1434564              0.7443083
SP   1   1.00
      0.1687144              1.0000000              1.0000000
D    1   1.00
      1.2520000              1.0000000
D    1   1.00
      0.3130000              1.0000000
F    1   1.00
      0.8000000              1.0000000
****
N     0
S    6   1.00
   4173.5110000              0.0018348
    627.4579000              0.0139950
    142.9021000              0.0685870
     40.2343300              0.2322410
     12.8202100              0.4690700
      4.3904370              0.3604550
SP   3   1.00
     11.6263580             -0.1149610              0.0675800
      2.7162800             -0.1691180              0.3239070
      0.7722180              1.1458520              0.7408950
SP   1   1.00
      0.2120313              1.0000000              1.0000000
D    1   1.00
      1.8260000              1.0000000
D    1   1.00
      0.4565000              1.0000000
F    1   1.00
      1.0000000              1.0000000
****
}

set {
opt_type min
reference rhf
freeze_core true
e_convergence 10
d_convergence 10
ensure_bt_convergence true
dft_spherical_points 590
dft_radial_points 99
}

e = energy('b3lyp')

print_out('Grab this energy {0}'.format(e))
--------------------------------------------------------------------------

    Molecular point group: c1

    Geometry (in Bohr), charge = 0, multiplicity = 1:

       Center              X                  Y                   Z               Mass
    ------------   -----------------  -----------------  -----------------  -----------------
         N            4.431200670094    -0.003771114429    -0.001358162198    14.003074004430
         C            2.238063203794     0.005705013371     0.001867245102    12.000000000000
         C           -0.576157975606    -0.000472716329     0.005488509702    12.000000000000
         F           -1.438939854606     1.173210065671    -2.045474015998    18.998403162730
         F           -1.437696727706    -2.350835116629    -0.003460720498    18.998403162730
         F           -1.439162642906     1.177099724171     2.045289661102    18.998403162730

  Charge       = 0
  Multiplicity = 1
  Basis Set: ANONYMOUS030F00BD
    Blend: 6-31G_2DFP_
  Basis Set: (ANONYMOUS030F00BD AUX)
    Blend: DEF2-UNIVERSAL-JKFIT

    Orbital Energies [Eh]
    ---------------------

    Doubly Occupied:

       1A    -24.765405     2A    -24.765202     3A    -24.763339
       4A    -14.389810     5A    -10.497342     6A    -10.265178
       7A     -1.357906     8A     -1.266943     9A     -1.264630
      10A     -0.946069    11A     -0.784496    12A     -0.670040
      13A     -0.634037    14A     -0.633223    15A     -0.502983
      16A     -0.502444    17A     -0.469183    18A     -0.468222
      19A     -0.464407    20A     -0.442732    21A     -0.400405
      22A     -0.380880    23A     -0.380793

  @DF-RKS Final Energy:  -430.45975860015039

   => Energetics <=

    Nuclear Repulsion Energy =            231.4160336245280405
    One-Electron Energy =               -1053.2338487255403834
    Two-Electron Energy =                 431.0494447480526219
    DFT Exchange-Correlation Energy =     -39.6913882471906803
    Empirical Dispersion Energy =           0.0000000000000000
    VV10 Nonlocal Energy =                  0.0000000000000000
    Total Energy =                       -430.4597586001503942

  Dipole Moment: [D]
     X:    -1.5102      Y:    -0.0095      Z:     0.0249     Total:     1.5104

*** Psi4 exiting successfully. Buy a developer a beer!
