                               Psi4 1.4a2.dev629

  ==> Input File <==

--------------------------------------------------------------------------
import os
memory 14 GB

molecule {
 N    4.4350267289    0.0023516177    0.0013648852
 X    2.2380672400    1.0000000000    0.0000000000
 C    2.2353354064   -0.0057519080   -0.0033264757
 X    2.2380672400   -0.0000000000    1.0000000000
 C   -0.5807449728   -0.0004180819   -0.0002415653
 F   -1.4374398251    1.1759597062   -2.0395898017
 F   -1.4352546115   -2.3505753996   -0.0006941868
 F   -1.4396093459    1.1784340656    2.0424871443
units bohr
}

basis {

assign 6-31g_2dfp_

[ 6-31g_2dfp_ ]
spherical

!----------------------------------------------------------------------
! Basis Set Exchange
! Version v0.8.13
! https://www.basissetexchange.org
!----------------------------------------------------------------------
!   Basis set: 6-31G(2df,p)
! Description: 6-31G(2df,p)
!        Role: orbital
!     Version: 0  (Data from the original Basis Set Exchange)
!----------------------------------------------------------------------

****
F     0
S    6   1.00
   7001.7130900              0.0018196169
   1051.3660900              0.0139160796
    239.2856900              0.0684053245
     67.3974453              0.233185760
     21.5199573              0.471267439
      7.40310130             0.356618546
SP   3   1.00
     20.8479528             -0.108506975            0.0716287243
      4.80830834            -0.146451658            0.3459121030
      1.34406986             1.128688580            0.7224699570
SP   1   1.00
      0.358151393            1.0000000              1.0000000
D    1   1.00
      3.5000000              1.0000000
D    1   1.00
      0.8750000              1.0000000
F    1   1.00
      1.8500000              1.0000000
****
C     0
S    6   1.00
   3047.5249000              0.0018347
    457.3695100              0.0140373
    103.9486900              0.0688426
     29.2101550              0.2321844
      9.2866630              0.4679413
      3.1639270              0.3623120
SP   3   1.00
      7.8682724             -0.1193324              0.0689991
      1.8812885             -0.1608542              0.3164240
      0.5442493              1.1434564              0.7443083
SP   1   1.00
      0.1687144              1.0000000              1.0000000
D    1   1.00
      1.2520000              1.0000000
D    1   1.00
      0.3130000              1.0000000
F    1   1.00
      0.8000000              1.0000000
****
N     0
S    6   1.00
   4173.5110000              0.0018348
    627.4579000              0.0139950
    142.9021000              0.0685870
     40.2343300              0.2322410
     12.8202100              0.4690700
      4.3904370              0.3604550
SP   3   1.00
     11.6263580             -0.1149610              0.0675800
      2.7162800             -0.1691180              0.3239070
      0.7722180              1.1458520              0.7408950
SP   1   1.00
      0.2120313              1.0000000              1.0000000
D    1   1.00
      1.8260000              1.0000000
D    1   1.00
      0.4565000              1.0000000
F    1   1.00
      1.0000000              1.0000000
****
}

set {
opt_type min
reference rhf
freeze_core true
e_convergence 10
d_convergence 10
ensure_bt_convergence true
dft_spherical_points 590
dft_radial_points 99
}

e = energy('b3lyp')

print_out('Grab this energy {0}'.format(e))
--------------------------------------------------------------------------

    Molecular point group: c1

    Geometry (in Bohr), charge = 0, multiplicity = 1:

       Center              X                  Y                   Z               Mass
    ------------   -----------------  -----------------  -----------------  -----------------
         N            4.434687702990     0.002020738328     0.001173802394    14.003074004430
         C            2.234996380490    -0.006082787372    -0.003517558506    12.000000000000
         C           -0.581083998710    -0.000748961272    -0.000432648106    12.000000000000
         F           -1.437778851010     1.175628826828    -2.039780884506    18.998403162730
         F           -1.435593637410    -2.350906278972    -0.000885269606    18.998403162730
         F           -1.439948371810     1.178103186228     2.042296061494    18.998403162730

  Charge       = 0
  Multiplicity = 1
  Basis Set: ANONYMOUS89E364B9
    Blend: 6-31G_2DFP_
  Basis Set: (ANONYMOUS89E364B9 AUX)
    Blend: DEF2-UNIVERSAL-JKFIT

    Orbital Energies [Eh]
    ---------------------

    Doubly Occupied:

       1A    -24.765485     2A    -24.764947     3A    -24.764412
       4A    -14.390103     5A    -10.497196     6A    -10.265370
       7A     -1.359252     8A     -1.267491     9A     -1.266143
      10A     -0.944273    11A     -0.784226    12A     -0.670655
      13A     -0.634650    14A     -0.634326    15A     -0.503345
      16A     -0.503229    17A     -0.469498    18A     -0.469067
      19A     -0.464472    20A     -0.443161    21A     -0.400069
      22A     -0.379598    23A     -0.379574

  @DF-RKS Final Energy:  -430.45958429587313

   => Energetics <=

    Nuclear Repulsion Energy =            231.5105861483088177
    One-Electron Energy =               -1053.4132661083810945
    Two-Electron Energy =                 431.1339817576863425
    DFT Exchange-Correlation Energy =     -39.6908860934871655
    Empirical Dispersion Energy =           0.0000000000000000
    VV10 Nonlocal Energy =                  0.0000000000000000
    Total Energy =                       -430.4595842958731282

  Dipole Moment: [D]
     X:    -1.5366      Y:    -0.0150      Z:    -0.0086     Total:     1.5367

*** Psi4 exiting successfully. Buy a developer a beer!
