                               Psi4 1.4a2.dev629

  ==> Input File <==

--------------------------------------------------------------------------
import os
memory 14 GB

molecule {
 N    4.4312000215    0.0016174197   -0.0028600651
 X    2.2380672400    1.0000000000    0.0000000000
 C    2.2380665925   -0.0037624383    0.0065720745
 X    2.2380672400   -0.0000000000    1.0000000000
 C   -0.5761540931   -0.0001054470    0.0001936472
 F   -1.4410745312    1.1798344434   -2.0435358046
 F   -1.4373462453   -2.3545286907    0.0003665012
 F   -1.4373783643    1.1769447129    2.0392636469
units bohr
}

basis {

assign 6-31g_2dfp_

[ 6-31g_2dfp_ ]
spherical

!----------------------------------------------------------------------
! Basis Set Exchange
! Version v0.8.13
! https://www.basissetexchange.org
!----------------------------------------------------------------------
!   Basis set: 6-31G(2df,p)
! Description: 6-31G(2df,p)
!        Role: orbital
!     Version: 0  (Data from the original Basis Set Exchange)
!----------------------------------------------------------------------

****
F     0
S    6   1.00
   7001.7130900              0.0018196169
   1051.3660900              0.0139160796
    239.2856900              0.0684053245
     67.3974453              0.233185760
     21.5199573              0.471267439
      7.40310130             0.356618546
SP   3   1.00
     20.8479528             -0.108506975            0.0716287243
      4.80830834            -0.146451658            0.3459121030
      1.34406986             1.128688580            0.7224699570
SP   1   1.00
      0.358151393            1.0000000              1.0000000
D    1   1.00
      3.5000000              1.0000000
D    1   1.00
      0.8750000              1.0000000
F    1   1.00
      1.8500000              1.0000000
****
C     0
S    6   1.00
   3047.5249000              0.0018347
    457.3695100              0.0140373
    103.9486900              0.0688426
     29.2101550              0.2321844
      9.2866630              0.4679413
      3.1639270              0.3623120
SP   3   1.00
      7.8682724             -0.1193324              0.0689991
      1.8812885             -0.1608542              0.3164240
      0.5442493              1.1434564              0.7443083
SP   1   1.00
      0.1687144              1.0000000              1.0000000
D    1   1.00
      1.2520000              1.0000000
D    1   1.00
      0.3130000              1.0000000
F    1   1.00
      0.8000000              1.0000000
****
N     0
S    6   1.00
   4173.5110000              0.0018348
    627.4579000              0.0139950
    142.9021000              0.0685870
     40.2343300              0.2322410
     12.8202100              0.4690700
      4.3904370              0.3604550
SP   3   1.00
     11.6263580             -0.1149610              0.0675800
      2.7162800             -0.1691180              0.3239070
      0.7722180              1.1458520              0.7408950
SP   1   1.00
      0.2120313              1.0000000              1.0000000
D    1   1.00
      1.8260000              1.0000000
D    1   1.00
      0.4565000              1.0000000
F    1   1.00
      1.0000000              1.0000000
****
}

set {
opt_type min
reference rhf
freeze_core true
e_convergence 10
d_convergence 10
ensure_bt_convergence true
dft_spherical_points 590
dft_radial_points 99
}

e = energy('b3lyp')

print_out('Grab this energy {0}'.format(e))
--------------------------------------------------------------------------

    Molecular point group: c1

    Geometry (in Bohr), charge = 0, multiplicity = 1:

       Center              X                  Y                   Z               Mass
    ------------   -----------------  -----------------  -----------------  -----------------
         N            4.431199181737     0.001417526857    -0.002512034815    14.003074004430
         C            2.238065752737    -0.003962331143     0.006920104785    12.000000000000
         C           -0.576154932863    -0.000305339843     0.000541677485    12.000000000000
         F           -1.441075370963     1.179634550557    -2.043187774315    18.998403162730
         F           -1.437347085063    -2.354728583543     0.000714531485    18.998403162730
         F           -1.437379204063     1.176744820057     2.039611677185    18.998403162730

  Charge       = 0
  Multiplicity = 1
  Basis Set: ANONYMOUSD8D65678
    Blend: 6-31G_2DFP_
  Basis Set: (ANONYMOUSD8D65678 AUX)
    Blend: DEF2-UNIVERSAL-JKFIT

    Orbital Energies [Eh]
    ---------------------

    Doubly Occupied:

       1A    -24.764890     2A    -24.764873     3A    -24.764187
       4A    -14.389810     5A    -10.497343     6A    -10.265178
       7A     -1.357874     8A     -1.266355     9A     -1.265243
      10A     -0.946070    11A     -0.784495    12A     -0.670024
      13A     -0.633768    14A     -0.633490    15A     -0.502722
      16A     -0.502688    17A     -0.468872    18A     -0.468498
      19A     -0.464455    20A     -0.442754    21A     -0.400406
      22A     -0.380856    23A     -0.380819

  @DF-RKS Final Energy:  -430.45977096431494

   => Energetics <=

    Nuclear Repulsion Energy =            231.4155238868146114
    One-Electron Energy =               -1053.2328623126168168
    Two-Electron Energy =                 431.0489444429251193
    DFT Exchange-Correlation Energy =     -39.6913769814379052
    Empirical Dispersion Energy =           0.0000000000000000
    VV10 Nonlocal Energy =                  0.0000000000000000
    Total Energy =                       -430.4597709643149415

  Dipole Moment: [D]
     X:    -1.5102      Y:    -0.0075      Z:     0.0130     Total:     1.5102

*** Psi4 exiting successfully. Buy a developer a beer!
