                               Psi4 1.4a2.dev629

  ==> Input File <==

--------------------------------------------------------------------------
import os
memory 14 GB

molecule {
 N    4.4204772234   -0.0088688787   -0.0051182369
 X    2.2380672400    1.0000000000   -0.0000000000
 C    2.2297708255    0.0007659130    0.0004467262
 X    2.2380672400    0.0000000000    1.0000000000
 C   -0.5801563416    0.0026805392    0.0015570976
 F   -1.4309353741    1.1855192334   -2.0416684081
 F   -1.4176476215   -2.3623347864    0.0029325706
 F   -1.4441953317    1.1822379794    2.0418502505
units bohr
}

basis {

assign 6-31g_2dfp_

[ 6-31g_2dfp_ ]
spherical

!----------------------------------------------------------------------
! Basis Set Exchange
! Version v0.8.13
! https://www.basissetexchange.org
!----------------------------------------------------------------------
!   Basis set: 6-31G(2df,p)
! Description: 6-31G(2df,p)
!        Role: orbital
!     Version: 0  (Data from the original Basis Set Exchange)
!----------------------------------------------------------------------

****
F     0
S    6   1.00
   7001.7130900              0.0018196169
   1051.3660900              0.0139160796
    239.2856900              0.0684053245
     67.3974453              0.233185760
     21.5199573              0.471267439
      7.40310130             0.356618546
SP   3   1.00
     20.8479528             -0.108506975            0.0716287243
      4.80830834            -0.146451658            0.3459121030
      1.34406986             1.128688580            0.7224699570
SP   1   1.00
      0.358151393            1.0000000              1.0000000
D    1   1.00
      3.5000000              1.0000000
D    1   1.00
      0.8750000              1.0000000
F    1   1.00
      1.8500000              1.0000000
****
C     0
S    6   1.00
   3047.5249000              0.0018347
    457.3695100              0.0140373
    103.9486900              0.0688426
     29.2101550              0.2321844
      9.2866630              0.4679413
      3.1639270              0.3623120
SP   3   1.00
      7.8682724             -0.1193324              0.0689991
      1.8812885             -0.1608542              0.3164240
      0.5442493              1.1434564              0.7443083
SP   1   1.00
      0.1687144              1.0000000              1.0000000
D    1   1.00
      1.2520000              1.0000000
D    1   1.00
      0.3130000              1.0000000
F    1   1.00
      0.8000000              1.0000000
****
N     0
S    6   1.00
   4173.5110000              0.0018348
    627.4579000              0.0139950
    142.9021000              0.0685870
     40.2343300              0.2322410
     12.8202100              0.4690700
      4.3904370              0.3604550
SP   3   1.00
     11.6263580             -0.1149610              0.0675800
      2.7162800             -0.1691180              0.3239070
      0.7722180              1.1458520              0.7408950
SP   1   1.00
      0.2120313              1.0000000              1.0000000
D    1   1.00
      1.8260000              1.0000000
D    1   1.00
      0.4565000              1.0000000
F    1   1.00
      1.0000000              1.0000000
****
}

set {
opt_type min
reference rhf
freeze_core true
e_convergence 10
d_convergence 10
ensure_bt_convergence true
dft_spherical_points 590
dft_radial_points 99
}

e = energy('b3lyp')

print_out('Grab this energy {0}'.format(e))
--------------------------------------------------------------------------

    Molecular point group: c1

    Geometry (in Bohr), charge = 0, multiplicity = 1:

       Center              X                  Y                   Z               Mass
    ------------   -----------------  -----------------  -----------------  -----------------
         N            4.419006563662    -0.009081338376    -0.005239751825    14.003074004430
         C            2.228300165762     0.000553453324     0.000325211275    12.000000000000
         C           -0.581627001338     0.002468079524     0.001435582675    12.000000000000
         F           -1.432406033838     1.185306773724    -2.041789923025    18.998403162730
         F           -1.419118281238    -2.362547246076     0.002811055675    18.998403162730
         F           -1.445665991438     1.182025519724     2.041728735575    18.998403162730

  Charge       = 0
  Multiplicity = 1
  Basis Set: ANONYMOUS9E0FC6D9
    Blend: 6-31G_2DFP_
  Basis Set: (ANONYMOUS9E0FC6D9 AUX)
    Blend: DEF2-UNIVERSAL-JKFIT

    Orbital Energies [Eh]
    ---------------------

    Doubly Occupied:

       1A    -24.765347     2A    -24.765174     3A    -24.765009
       4A    -14.388834     5A    -10.497324     6A    -10.264012
       7A     -1.357739     8A     -1.266835     9A     -1.266005
      10A     -0.946020    11A     -0.784891    12A     -0.670030
      13A     -0.634250    14A     -0.633873    15A     -0.503214
      16A     -0.502693    17A     -0.469921    18A     -0.469370
      19A     -0.463687    20A     -0.443516    21A     -0.399790
      22A     -0.380630    23A     -0.380466

  @DF-RKS Final Energy:  -430.45980925581000

   => Energetics <=

    Nuclear Repulsion Energy =            231.5053342942240135
    One-Electron Energy =               -1053.4056304550722416
    Two-Electron Energy =                 431.1333169738607580
    DFT Exchange-Correlation Energy =     -39.6928300688224738
    Empirical Dispersion Energy =           0.0000000000000000
    VV10 Nonlocal Energy =                  0.0000000000000000
    Total Energy =                       -430.4598092558100006

  Dipole Moment: [D]
     X:    -1.5408      Y:     0.0054      Z:     0.0032     Total:     1.5408

*** Psi4 exiting successfully. Buy a developer a beer!
