                               Psi4 1.4a2.dev629

  ==> Input File <==

--------------------------------------------------------------------------
import os
memory 14 GB

molecule {
 N    4.4294016731   -0.0000000000    0.0000000000
 X    2.2380672400    1.0000000000   -0.0000000000
 C    2.2421437648    0.0000000000   -0.0000000000
 X    2.2380672400    0.0000000000    1.0000000000
 C   -0.5793558107   -0.0000000000    0.0000000000
 F   -1.4382920824    1.1779160008   -2.0402103663
 F   -1.4382920824   -2.3558320015   -0.0000000000
 F   -1.4382920824    1.1779160008    2.0402103663
units bohr
}

basis {

assign 6-31g_2dfp_

[ 6-31g_2dfp_ ]
spherical

!----------------------------------------------------------------------
! Basis Set Exchange
! Version v0.8.13
! https://www.basissetexchange.org
!----------------------------------------------------------------------
!   Basis set: 6-31G(2df,p)
! Description: 6-31G(2df,p)
!        Role: orbital
!     Version: 0  (Data from the original Basis Set Exchange)
!----------------------------------------------------------------------

****
F     0
S    6   1.00
   7001.7130900              0.0018196169
   1051.3660900              0.0139160796
    239.2856900              0.0684053245
     67.3974453              0.233185760
     21.5199573              0.471267439
      7.40310130             0.356618546
SP   3   1.00
     20.8479528             -0.108506975            0.0716287243
      4.80830834            -0.146451658            0.3459121030
      1.34406986             1.128688580            0.7224699570
SP   1   1.00
      0.358151393            1.0000000              1.0000000
D    1   1.00
      3.5000000              1.0000000
D    1   1.00
      0.8750000              1.0000000
F    1   1.00
      1.8500000              1.0000000
****
C     0
S    6   1.00
   3047.5249000              0.0018347
    457.3695100              0.0140373
    103.9486900              0.0688426
     29.2101550              0.2321844
      9.2866630              0.4679413
      3.1639270              0.3623120
SP   3   1.00
      7.8682724             -0.1193324              0.0689991
      1.8812885             -0.1608542              0.3164240
      0.5442493              1.1434564              0.7443083
SP   1   1.00
      0.1687144              1.0000000              1.0000000
D    1   1.00
      1.2520000              1.0000000
D    1   1.00
      0.3130000              1.0000000
F    1   1.00
      0.8000000              1.0000000
****
N     0
S    6   1.00
   4173.5110000              0.0018348
    627.4579000              0.0139950
    142.9021000              0.0685870
     40.2343300              0.2322410
     12.8202100              0.4690700
      4.3904370              0.3604550
SP   3   1.00
     11.6263580             -0.1149610              0.0675800
      2.7162800             -0.1691180              0.3239070
      0.7722180              1.1458520              0.7408950
SP   1   1.00
      0.2120313              1.0000000              1.0000000
D    1   1.00
      1.8260000              1.0000000
D    1   1.00
      0.4565000              1.0000000
F    1   1.00
      1.0000000              1.0000000
****
}

set {
opt_type min
reference rhf
freeze_core true
e_convergence 10
d_convergence 10
ensure_bt_convergence true
dft_spherical_points 590
dft_radial_points 99
}

e = energy('b3lyp')

print_out('Grab this energy {0}'.format(e))
--------------------------------------------------------------------------

    Molecular point group: cs

    Geometry (in Bohr), charge = 0, multiplicity = 1:

       Center              X                  Y                   Z               Mass
    ------------   -----------------  -----------------  -----------------  -----------------
         N            4.429370763790    -0.000000000020     0.000000000000    14.003074004430
         C            2.242112855490    -0.000000000020     0.000000000000    12.000000000000
         C           -0.579386720010    -0.000000000020     0.000000000000    12.000000000000
         F           -1.438322991710     1.177916000780    -2.040210366300    18.998403162730
         F           -1.438322991710    -2.355832001520     0.000000000000    18.998403162730
         F           -1.438322991710     1.177916000780     2.040210366300    18.998403162730

  Charge       = 0
  Multiplicity = 1
  Basis Set: ANONYMOUS443446C5
    Blend: 6-31G_2DFP_
  Basis Set: (ANONYMOUS443446C5 AUX)
    Blend: DEF2-UNIVERSAL-JKFIT

    Orbital Energies [Eh]
    ---------------------

    Doubly Occupied:

       1Ap   -24.764946     1App  -24.764921     2Ap   -24.764921
       3Ap   -14.388469     4Ap   -10.497644     5Ap   -10.264125
       6Ap    -1.358464     2App   -1.266357     7Ap    -1.266357
       8Ap    -0.946668     9Ap    -0.783645    10Ap    -0.670001
      11Ap    -0.634036     3App   -0.634036    12Ap    -0.503021
       4App   -0.503021     5App   -0.469082    13Ap    -0.469082
      14Ap    -0.464159     6App   -0.443070    15Ap    -0.399717
      16Ap    -0.381121     7App   -0.381121

  @DF-RKS Final Energy:  -430.45983399083377

   => Energetics <=

    Nuclear Repulsion Energy =            231.4679824012030736
    One-Electron Energy =               -1053.3316263104293284
    Two-Electron Energy =                 431.0976051460521035
    DFT Exchange-Correlation Energy =     -39.6937952276595354
    Empirical Dispersion Energy =           0.0000000000000000
    VV10 Nonlocal Energy =                  0.0000000000000000
    Total Energy =                       -430.4598339908337721

  Dipole Moment: [D]
     X:    -1.5324      Y:     0.0000      Z:     0.0000     Total:     1.5324

*** Psi4 exiting successfully. Buy a developer a beer!
