                               Psi4 1.4a2.dev629

  ==> Input File <==

--------------------------------------------------------------------------
import os
memory 14 GB

molecule {
 N    4.4273857734   -0.0088596870   -0.0051128562
 X    2.2380672400    1.0000000000   -0.0000000000
 C    2.2408046892    0.0007710297    0.0004496857
 X    2.2380672400    0.0000000000    1.0000000000
 C   -0.5715678814    0.0027057679    0.0015716040
 F   -1.4397790970    1.1841833577   -2.0392606726
 F   -1.4265179906   -2.3596487673    0.0029560192
 F   -1.4530121135    1.1808482990    2.0393962199
units bohr
}

basis {

assign 6-31g_2dfp_

[ 6-31g_2dfp_ ]
spherical

!----------------------------------------------------------------------
! Basis Set Exchange
! Version v0.8.13
! https://www.basissetexchange.org
!----------------------------------------------------------------------
!   Basis set: 6-31G(2df,p)
! Description: 6-31G(2df,p)
!        Role: orbital
!     Version: 0  (Data from the original Basis Set Exchange)
!----------------------------------------------------------------------

****
F     0
S    6   1.00
   7001.7130900              0.0018196169
   1051.3660900              0.0139160796
    239.2856900              0.0684053245
     67.3974453              0.233185760
     21.5199573              0.471267439
      7.40310130             0.356618546
SP   3   1.00
     20.8479528             -0.108506975            0.0716287243
      4.80830834            -0.146451658            0.3459121030
      1.34406986             1.128688580            0.7224699570
SP   1   1.00
      0.358151393            1.0000000              1.0000000
D    1   1.00
      3.5000000              1.0000000
D    1   1.00
      0.8750000              1.0000000
F    1   1.00
      1.8500000              1.0000000
****
C     0
S    6   1.00
   3047.5249000              0.0018347
    457.3695100              0.0140373
    103.9486900              0.0688426
     29.2101550              0.2321844
      9.2866630              0.4679413
      3.1639270              0.3623120
SP   3   1.00
      7.8682724             -0.1193324              0.0689991
      1.8812885             -0.1608542              0.3164240
      0.5442493              1.1434564              0.7443083
SP   1   1.00
      0.1687144              1.0000000              1.0000000
D    1   1.00
      1.2520000              1.0000000
D    1   1.00
      0.3130000              1.0000000
F    1   1.00
      0.8000000              1.0000000
****
N     0
S    6   1.00
   4173.5110000              0.0018348
    627.4579000              0.0139950
    142.9021000              0.0685870
     40.2343300              0.2322410
     12.8202100              0.4690700
      4.3904370              0.3604550
SP   3   1.00
     11.6263580             -0.1149610              0.0675800
      2.7162800             -0.1691180              0.3239070
      0.7722180              1.1458520              0.7408950
SP   1   1.00
      0.2120313              1.0000000              1.0000000
D    1   1.00
      1.8260000              1.0000000
D    1   1.00
      0.4565000              1.0000000
F    1   1.00
      1.0000000              1.0000000
****
}

set {
opt_type min
reference rhf
freeze_core true
e_convergence 10
d_convergence 10
ensure_bt_convergence true
dft_spherical_points 590
dft_radial_points 99
}

e = energy('b3lyp')

print_out('Grab this energy {0}'.format(e))
--------------------------------------------------------------------------

    Molecular point group: c1

    Geometry (in Bohr), charge = 0, multiplicity = 1:

       Center              X                  Y                   Z               Mass
    ------------   -----------------  -----------------  -----------------  -----------------
         N            4.427723940166    -0.009069427858    -0.005232801519    14.003074004430
         C            2.241142855966     0.000561288842     0.000329740381    12.000000000000
         C           -0.571229714634     0.002496027042     0.001451658681    12.000000000000
         F           -1.439440930234     1.183973616842    -2.039380617919    18.998403162730
         F           -1.426179823834    -2.359858508158     0.002836073881    18.998403162730
         F           -1.452673946734     1.180638558142     2.039276274581    18.998403162730

  Charge       = 0
  Multiplicity = 1
  Basis Set: ANONYMOUS08DBE931
    Blend: 6-31G_2DFP_
  Basis Set: (ANONYMOUS08DBE931 AUX)
    Blend: DEF2-UNIVERSAL-JKFIT

    Orbital Energies [Eh]
    ---------------------

    Doubly Occupied:

       1A    -24.764528     2A    -24.764351     3A    -24.764182
       4A    -14.389507     5A    -10.497491     6A    -10.264977
       7A     -1.356501     8A     -1.265208     9A     -1.264371
      10A     -0.947863    11A     -0.784768    12A     -0.669398
      13A     -0.632964    14A     -0.632581    15A     -0.502391
      16A     -0.501864    17A     -0.468376    18A     -0.467816
      19A     -0.464433    20A     -0.442345    21A     -0.400730
      22A     -0.382168    23A     -0.382007

  @DF-RKS Final Energy:  -430.45987302536076

   => Energetics <=

    Nuclear Repulsion Energy =            231.3218026299641394
    One-Electron Energy =               -1053.0549067493427629
    Two-Electron Energy =                 430.9651373324807082
    DFT Exchange-Correlation Energy =     -39.6919062384628987
    Empirical Dispersion Energy =           0.0000000000000000
    VV10 Nonlocal Energy =                  0.0000000000000000
    Total Energy =                       -430.4598730253607641

  Dipole Moment: [D]
     X:    -1.4840      Y:     0.0054      Z:     0.0032     Total:     1.4840

*** Psi4 exiting successfully. Buy a developer a beer!
