                               Psi4 1.4a2.dev629

  ==> Input File <==

--------------------------------------------------------------------------
import os
memory 14 GB

molecule {
 N    4.4311401467    0.0060907514    0.0035344132
 X    2.2380672400    1.0000000000   -0.0000000000
 C    2.2380645519   -0.0105851787   -0.0061348629
 X    2.2380672400   -0.0000000000    1.0000000000
 C   -0.5761488993   -0.0021638770   -0.0012504065
 F   -1.4385851670    1.1830156225   -2.0377285283
 F   -1.4371568539   -2.3567025079    0.0028253938
 F   -1.4400003985    1.1803451898    2.0387539907
units bohr
}

basis {

assign 6-31g_2dfp_

[ 6-31g_2dfp_ ]
spherical

!----------------------------------------------------------------------
! Basis Set Exchange
! Version v0.8.13
! https://www.basissetexchange.org
!----------------------------------------------------------------------
!   Basis set: 6-31G(2df,p)
! Description: 6-31G(2df,p)
!        Role: orbital
!     Version: 0  (Data from the original Basis Set Exchange)
!----------------------------------------------------------------------

****
F     0
S    6   1.00
   7001.7130900              0.0018196169
   1051.3660900              0.0139160796
    239.2856900              0.0684053245
     67.3974453              0.233185760
     21.5199573              0.471267439
      7.40310130             0.356618546
SP   3   1.00
     20.8479528             -0.108506975            0.0716287243
      4.80830834            -0.146451658            0.3459121030
      1.34406986             1.128688580            0.7224699570
SP   1   1.00
      0.358151393            1.0000000              1.0000000
D    1   1.00
      3.5000000              1.0000000
D    1   1.00
      0.8750000              1.0000000
F    1   1.00
      1.8500000              1.0000000
****
C     0
S    6   1.00
   3047.5249000              0.0018347
    457.3695100              0.0140373
    103.9486900              0.0688426
     29.2101550              0.2321844
      9.2866630              0.4679413
      3.1639270              0.3623120
SP   3   1.00
      7.8682724             -0.1193324              0.0689991
      1.8812885             -0.1608542              0.3164240
      0.5442493              1.1434564              0.7443083
SP   1   1.00
      0.1687144              1.0000000              1.0000000
D    1   1.00
      1.2520000              1.0000000
D    1   1.00
      0.3130000              1.0000000
F    1   1.00
      0.8000000              1.0000000
****
N     0
S    6   1.00
   4173.5110000              0.0018348
    627.4579000              0.0139950
    142.9021000              0.0685870
     40.2343300              0.2322410
     12.8202100              0.4690700
      4.3904370              0.3604550
SP   3   1.00
     11.6263580             -0.1149610              0.0675800
      2.7162800             -0.1691180              0.3239070
      0.7722180              1.1458520              0.7408950
SP   1   1.00
      0.2120313              1.0000000              1.0000000
D    1   1.00
      1.8260000              1.0000000
D    1   1.00
      0.4565000              1.0000000
F    1   1.00
      1.0000000              1.0000000
****
}

set {
opt_type min
reference rhf
freeze_core true
e_convergence 10
d_convergence 10
ensure_bt_convergence true
dft_spherical_points 590
dft_radial_points 99
}

e = energy('b3lyp')

print_out('Grab this energy {0}'.format(e))
--------------------------------------------------------------------------

    Molecular point group: c1

    Geometry (in Bohr), charge = 0, multiplicity = 1:

       Center              X                  Y                   Z               Mass
    ------------   -----------------  -----------------  -----------------  -----------------
         N            4.431136390851     0.005471816790     0.003176201092    14.003074004430
         C            2.238060796051    -0.011204113310    -0.006493075008    12.000000000000
         C           -0.576152655149    -0.002782811610    -0.001608618608    12.000000000000
         F           -1.438588922849     1.182396687890    -2.038086740408    18.998403162730
         F           -1.437160609749    -2.357321442510     0.002467181692    18.998403162730
         F           -1.440004154349     1.179726255190     2.038395778592    18.998403162730

  Charge       = 0
  Multiplicity = 1
  Basis Set: ANONYMOUSEBEE9112
    Blend: 6-31G_2DFP_
  Basis Set: (ANONYMOUSEBEE9112 AUX)
    Blend: DEF2-UNIVERSAL-JKFIT

    Orbital Energies [Eh]
    ---------------------

    Doubly Occupied:

       1A    -24.765085     2A    -24.764647     3A    -24.764212
       4A    -14.389811     5A    -10.497342     6A    -10.265176
       7A     -1.357864     8A     -1.266474     9A     -1.265129
      10A     -0.946071    11A     -0.784492    12A     -0.670019
      13A     -0.633898    14A     -0.633355    15A     -0.502919
      16A     -0.502489    17A     -0.469052    18A     -0.468321
      19A     -0.464457    20A     -0.442746    21A     -0.400408
      22A     -0.380868    23A     -0.380805

  @DF-RKS Final Energy:  -430.45976651094162

   => Energetics <=

    Nuclear Repulsion Energy =            231.4159846563021574
    One-Electron Energy =               -1053.2338362653961212
    Two-Electron Energy =                 431.0494603189628720
    DFT Exchange-Correlation Energy =     -39.6913752208105208
    Empirical Dispersion Energy =           0.0000000000000000
    VV10 Nonlocal Energy =                  0.0000000000000000
    Total Energy =                       -430.4597665109416198

  Dipole Moment: [D]
     X:    -1.5101      Y:    -0.0187      Z:    -0.0108     Total:     1.5103

*** Psi4 exiting successfully. Buy a developer a beer!
