                               Psi4 1.4a2.dev629

  ==> Input File <==

--------------------------------------------------------------------------
import os
memory 14 GB

molecule {
 N    4.4204893251   -0.0041425485    0.0071774381
 X    2.2380672400    1.0000000000   -0.0000000000
 C    2.2297676764   -0.0003703276    0.0006392301
 X    2.2380672400    0.0000000000    1.0000000000
 C   -0.5801601756    0.0001427366   -0.0002476615
 F   -1.4453897154    1.1779990697   -2.0403541423
 F   -1.4236975082   -2.3633116215   -0.0092685443
 F   -1.4236962222    1.1896826913    2.0420536800
units bohr
}

basis {

assign 6-31g_2dfp_

[ 6-31g_2dfp_ ]
spherical

!----------------------------------------------------------------------
! Basis Set Exchange
! Version v0.8.13
! https://www.basissetexchange.org
!----------------------------------------------------------------------
!   Basis set: 6-31G(2df,p)
! Description: 6-31G(2df,p)
!        Role: orbital
!     Version: 0  (Data from the original Basis Set Exchange)
!----------------------------------------------------------------------

****
F     0
S    6   1.00
   7001.7130900              0.0018196169
   1051.3660900              0.0139160796
    239.2856900              0.0684053245
     67.3974453              0.233185760
     21.5199573              0.471267439
      7.40310130             0.356618546
SP   3   1.00
     20.8479528             -0.108506975            0.0716287243
      4.80830834            -0.146451658            0.3459121030
      1.34406986             1.128688580            0.7224699570
SP   1   1.00
      0.358151393            1.0000000              1.0000000
D    1   1.00
      3.5000000              1.0000000
D    1   1.00
      0.8750000              1.0000000
F    1   1.00
      1.8500000              1.0000000
****
C     0
S    6   1.00
   3047.5249000              0.0018347
    457.3695100              0.0140373
    103.9486900              0.0688426
     29.2101550              0.2321844
      9.2866630              0.4679413
      3.1639270              0.3623120
SP   3   1.00
      7.8682724             -0.1193324              0.0689991
      1.8812885             -0.1608542              0.3164240
      0.5442493              1.1434564              0.7443083
SP   1   1.00
      0.1687144              1.0000000              1.0000000
D    1   1.00
      1.2520000              1.0000000
D    1   1.00
      0.3130000              1.0000000
F    1   1.00
      0.8000000              1.0000000
****
N     0
S    6   1.00
   4173.5110000              0.0018348
    627.4579000              0.0139950
    142.9021000              0.0685870
     40.2343300              0.2322410
     12.8202100              0.4690700
      4.3904370              0.3604550
SP   3   1.00
     11.6263580             -0.1149610              0.0675800
      2.7162800             -0.1691180              0.3239070
      0.7722180              1.1458520              0.7408950
SP   1   1.00
      0.2120313              1.0000000              1.0000000
D    1   1.00
      1.8260000              1.0000000
D    1   1.00
      0.4565000              1.0000000
F    1   1.00
      1.0000000              1.0000000
****
}

set {
opt_type min
reference rhf
freeze_core true
e_convergence 10
d_convergence 10
ensure_bt_convergence true
dft_spherical_points 590
dft_radial_points 99
}

e = energy('b3lyp')

print_out('Grab this energy {0}'.format(e))
--------------------------------------------------------------------------

    Molecular point group: c1

    Geometry (in Bohr), charge = 0, multiplicity = 1:

       Center              X                  Y                   Z               Mass
    ------------   -----------------  -----------------  -----------------  -----------------
         N            4.419018787254    -0.004377143969     0.007583698271    14.003074004430
         C            2.228297138554    -0.000604923069     0.001045490271    12.000000000000
         C           -0.581630713446    -0.000091858869     0.000158598671    12.000000000000
         F           -1.446860253246     1.177764474231    -2.039947882129    18.998403162730
         F           -1.425168046046    -2.363546216969    -0.008862284129    18.998403162730
         F           -1.425166760046     1.189448095831     2.042459940171    18.998403162730

  Charge       = 0
  Multiplicity = 1
  Basis Set: ANONYMOUS34283B27
    Blend: 6-31G_2DFP_
  Basis Set: (ANONYMOUS34283B27 AUX)
    Blend: DEF2-UNIVERSAL-JKFIT

    Orbital Energies [Eh]
    ---------------------

    Doubly Occupied:

       1A    -24.765411     2A    -24.765394     3A    -24.764718
       4A    -14.388835     5A    -10.497324     6A    -10.264012
       7A     -1.357740     8A     -1.267098     9A     -1.265737
      10A     -0.946020    11A     -0.784892    12A     -0.670029
      13A     -0.634419    14A     -0.633700    15A     -0.503394
      16A     -0.502514    17A     -0.470142    18A     -0.469153
      19A     -0.463687    20A     -0.443499    21A     -0.399791
      22A     -0.380627    23A     -0.380470

  @DF-RKS Final Energy:  -430.45979782876208

   => Energetics <=

    Nuclear Repulsion Energy =            231.5055550745805704
    One-Electron Energy =               -1053.4060932175777907
    Two-Electron Energy =                 431.1335756959977630
    DFT Exchange-Correlation Energy =     -39.6928353817626416
    Empirical Dispersion Energy =           0.0000000000000000
    VV10 Nonlocal Energy =                  0.0000000000000000
    Total Energy =                       -430.4597978287620776

  Dipole Moment: [D]
     X:    -1.5408      Y:    -0.0011      Z:     0.0019     Total:     1.5408

*** Psi4 exiting successfully. Buy a developer a beer!
