                               Psi4 1.4a2.dev629

  ==> Input File <==

--------------------------------------------------------------------------
import os
memory 14 GB

molecule {
 N    4.4350184715    0.0088738300    0.0051255545
 X    2.2380672400    1.0000000000    0.0000000000
 C    2.2353355555   -0.0007964043   -0.0004552760
 X    2.2380672400   -0.0000000000    1.0000000000
 C   -0.5807507079   -0.0027009365   -0.0015499438
 F   -1.4374392855    1.1720778553   -2.0418223450
 F   -1.4506799940   -2.3527989290   -0.0029261586
 F   -1.4241706595    1.1753445845    2.0416281688
units bohr
}

basis {

assign 6-31g_2dfp_

[ 6-31g_2dfp_ ]
spherical

!----------------------------------------------------------------------
! Basis Set Exchange
! Version v0.8.13
! https://www.basissetexchange.org
!----------------------------------------------------------------------
!   Basis set: 6-31G(2df,p)
! Description: 6-31G(2df,p)
!        Role: orbital
!     Version: 0  (Data from the original Basis Set Exchange)
!----------------------------------------------------------------------

****
F     0
S    6   1.00
   7001.7130900              0.0018196169
   1051.3660900              0.0139160796
    239.2856900              0.0684053245
     67.3974453              0.233185760
     21.5199573              0.471267439
      7.40310130             0.356618546
SP   3   1.00
     20.8479528             -0.108506975            0.0716287243
      4.80830834            -0.146451658            0.3459121030
      1.34406986             1.128688580            0.7224699570
SP   1   1.00
      0.358151393            1.0000000              1.0000000
D    1   1.00
      3.5000000              1.0000000
D    1   1.00
      0.8750000              1.0000000
F    1   1.00
      1.8500000              1.0000000
****
C     0
S    6   1.00
   3047.5249000              0.0018347
    457.3695100              0.0140373
    103.9486900              0.0688426
     29.2101550              0.2321844
      9.2866630              0.4679413
      3.1639270              0.3623120
SP   3   1.00
      7.8682724             -0.1193324              0.0689991
      1.8812885             -0.1608542              0.3164240
      0.5442493              1.1434564              0.7443083
SP   1   1.00
      0.1687144              1.0000000              1.0000000
D    1   1.00
      1.2520000              1.0000000
D    1   1.00
      0.3130000              1.0000000
F    1   1.00
      0.8000000              1.0000000
****
N     0
S    6   1.00
   4173.5110000              0.0018348
    627.4579000              0.0139950
    142.9021000              0.0685870
     40.2343300              0.2322410
     12.8202100              0.4690700
      4.3904370              0.3604550
SP   3   1.00
     11.6263580             -0.1149610              0.0675800
      2.7162800             -0.1691180              0.3239070
      0.7722180              1.1458520              0.7408950
SP   1   1.00
      0.2120313              1.0000000              1.0000000
D    1   1.00
      1.8260000              1.0000000
D    1   1.00
      0.4565000              1.0000000
F    1   1.00
      1.0000000              1.0000000
****
}

set {
opt_type min
reference rhf
freeze_core true
e_convergence 10
d_convergence 10
ensure_bt_convergence true
dft_spherical_points 590
dft_radial_points 99
}

e = energy('b3lyp')

print_out('Grab this energy {0}'.format(e))
--------------------------------------------------------------------------

    Molecular point group: c1

    Geometry (in Bohr), charge = 0, multiplicity = 1:

       Center              X                  Y                   Z               Mass
    ------------   -----------------  -----------------  -----------------  -----------------
         N            4.434678599855     0.009082801153     0.005247351408    14.003074004430
         C            2.234995683855    -0.000587433147    -0.000333479092    12.000000000000
         C           -0.581090579545    -0.002491965347    -0.001428146892    12.000000000000
         F           -1.437779157145     1.172286826453    -2.041700548092    18.998403162730
         F           -1.451019865645    -2.352589957847    -0.002804361692    18.998403162730
         F           -1.424510531145     1.175553555653     2.041749965708    18.998403162730

  Charge       = 0
  Multiplicity = 1
  Basis Set: ANONYMOUSF6C27A43
    Blend: 6-31G_2DFP_
  Basis Set: (ANONYMOUSF6C27A43 AUX)
    Blend: DEF2-UNIVERSAL-JKFIT

    Orbital Energies [Eh]
    ---------------------

    Doubly Occupied:

       1A    -24.765122     2A    -24.764947     3A    -24.764778
       4A    -14.390099     5A    -10.497198     6A    -10.265370
       7A     -1.359231     8A     -1.267247     9A     -1.266406
      10A     -0.944270    11A     -0.784226    12A     -0.670650
      13A     -0.634675    14A     -0.634295    15A     -0.503550
      16A     -0.503024    17A     -0.469568    18A     -0.469009
      19A     -0.464477    20A     -0.443161    21A     -0.400066
      22A     -0.379664    23A     -0.379502

  @DF-RKS Final Energy:  -430.45958480134937

   => Energetics <=

    Nuclear Repulsion Energy =            231.5107814824666264
    One-Electron Energy =               -1053.4136751155410821
    Two-Electron Energy =                 431.1341895906317063
    DFT Exchange-Correlation Energy =     -39.6908807589066370
    Empirical Dispersion Energy =           0.0000000000000000
    VV10 Nonlocal Energy =                  0.0000000000000000
    Total Energy =                       -430.4595848013493651

  Dipole Moment: [D]
     X:    -1.5367      Y:    -0.0054      Z:    -0.0031     Total:     1.5367

*** Psi4 exiting successfully. Buy a developer a beer!
