                               Psi4 1.4a2.dev629

  ==> Input File <==

--------------------------------------------------------------------------
import os
memory 14 GB

molecule {
 N    4.4312243372    0.0002228068   -0.0003906037
 X    2.2380672400    1.0000000000    0.0000000000
 C    2.2380648788   -0.0007395895    0.0012854338
 X    2.2380672400   -0.0000000000    1.0000000000
 C   -0.5761585369    0.0023690072   -0.0041023598
 F   -1.4382457076    1.1770917988   -2.0387830122
 F   -1.4387845097   -2.3572658037    0.0003590464
 F   -1.4387870819    1.1783217803    2.0416314955
units bohr
}

basis {

assign 6-31g_2dfp_

[ 6-31g_2dfp_ ]
spherical

!----------------------------------------------------------------------
! Basis Set Exchange
! Version v0.8.13
! https://www.basissetexchange.org
!----------------------------------------------------------------------
!   Basis set: 6-31G(2df,p)
! Description: 6-31G(2df,p)
!        Role: orbital
!     Version: 0  (Data from the original Basis Set Exchange)
!----------------------------------------------------------------------

****
F     0
S    6   1.00
   7001.7130900              0.0018196169
   1051.3660900              0.0139160796
    239.2856900              0.0684053245
     67.3974453              0.233185760
     21.5199573              0.471267439
      7.40310130             0.356618546
SP   3   1.00
     20.8479528             -0.108506975            0.0716287243
      4.80830834            -0.146451658            0.3459121030
      1.34406986             1.128688580            0.7224699570
SP   1   1.00
      0.358151393            1.0000000              1.0000000
D    1   1.00
      3.5000000              1.0000000
D    1   1.00
      0.8750000              1.0000000
F    1   1.00
      1.8500000              1.0000000
****
C     0
S    6   1.00
   3047.5249000              0.0018347
    457.3695100              0.0140373
    103.9486900              0.0688426
     29.2101550              0.2321844
      9.2866630              0.4679413
      3.1639270              0.3623120
SP   3   1.00
      7.8682724             -0.1193324              0.0689991
      1.8812885             -0.1608542              0.3164240
      0.5442493              1.1434564              0.7443083
SP   1   1.00
      0.1687144              1.0000000              1.0000000
D    1   1.00
      1.2520000              1.0000000
D    1   1.00
      0.3130000              1.0000000
F    1   1.00
      0.8000000              1.0000000
****
N     0
S    6   1.00
   4173.5110000              0.0018348
    627.4579000              0.0139950
    142.9021000              0.0685870
     40.2343300              0.2322410
     12.8202100              0.4690700
      4.3904370              0.3604550
SP   3   1.00
     11.6263580             -0.1149610              0.0675800
      2.7162800             -0.1691180              0.3239070
      0.7722180              1.1458520              0.7408950
SP   1   1.00
      0.2120313              1.0000000              1.0000000
D    1   1.00
      1.8260000              1.0000000
D    1   1.00
      0.4565000              1.0000000
F    1   1.00
      1.0000000              1.0000000
****
}

set {
opt_type min
reference rhf
freeze_core true
e_convergence 10
d_convergence 10
ensure_bt_convergence true
dft_spherical_points 590
dft_radial_points 99
}

e = energy('b3lyp')

print_out('Grab this energy {0}'.format(e))
--------------------------------------------------------------------------

    Molecular point group: c1

    Geometry (in Bohr), charge = 0, multiplicity = 1:

       Center              X                  Y                   Z               Mass
    ------------   -----------------  -----------------  -----------------  -----------------
         N            4.431224322463     0.000354559888    -0.000618662325    14.003074004430
         C            2.238064864063    -0.000607836412     0.001057375175    12.000000000000
         C           -0.576158551637     0.002500760288    -0.004330418425    12.000000000000
         F           -1.438245722337     1.177223551888    -2.039011070825    18.998403162730
         F           -1.438784524437    -2.357134050612     0.000130987775    18.998403162730
         F           -1.438787096637     1.178453533388     2.041403436875    18.998403162730

  Charge       = 0
  Multiplicity = 1
  Basis Set: ANONYMOUS4E5A66FC
    Blend: 6-31G_2DFP_
  Basis Set: (ANONYMOUS4E5A66FC AUX)
    Blend: DEF2-UNIVERSAL-JKFIT

    Orbital Energies [Eh]
    ---------------------

    Doubly Occupied:

       1A    -24.765961     2A    -24.764003     3A    -24.763986
       4A    -14.389809     5A    -10.497343     6A    -10.265179
       7A     -1.357897     8A     -1.266921     9A     -1.264660
      10A     -0.946069    11A     -0.784497    12A     -0.670038
      13A     -0.634012    14A     -0.633251    15A     -0.502722
      16A     -0.502705    17A     -0.469177    18A     -0.468217
      19A     -0.464422    20A     -0.442738    21A     -0.400404
      22A     -0.380874    23A     -0.380799

  @DF-RKS Final Energy:  -430.45976999430349

   => Energetics <=

    Nuclear Repulsion Energy =            231.4155516461488844
    One-Electron Energy =               -1053.2328862313738682
    Two-Electron Energy =                 431.0489465478823377
    DFT Exchange-Correlation Energy =     -39.6913819569607895
    Empirical Dispersion Energy =           0.0000000000000000
    VV10 Nonlocal Energy =                  0.0000000000000000
    Total Energy =                       -430.4597699943034854

  Dipole Moment: [D]
     X:    -1.5102      Y:     0.0132      Z:    -0.0229     Total:     1.5105

*** Psi4 exiting successfully. Buy a developer a beer!
