                               Psi4 1.4a2.dev629

  ==> Input File <==

--------------------------------------------------------------------------
import os
memory 14 GB

molecule {
 SI   -0.0830615816    0.0049548401    0.0000000304
 H    0.7697771387   -1.3369504551   -2.3143064284
 H    0.7681927155    2.6689460608   -0.0000000047
 H    0.7697771274   -1.3369504458    2.3143064027
units bohr
0 2
}

basis {

assign 6-31g_2dfp_

[ 6-31g_2dfp_ ]

spherical

!----------------------------------------------------------------------
! Basis Set Exchange
! Version v0.8.13
! https://www.basissetexchange.org
!----------------------------------------------------------------------
!   Basis set: 6-31G(2df,p)
! Description: 6-31G(2df,p)
!        Role: orbital
!     Version: 0  (Data from the original Basis Set Exchange)
!----------------------------------------------------------------------

****
H     0
S    3   1.00
     18.7311370              0.03349460
      2.8253937              0.23472695
      0.6401217              0.81375733
S    1   1.00
      0.1612778              1.00000000
P    1   1.00
      1.5000000              1.0000000
P    1   1.00
      0.3750000              1.0000000
****
B     0
S    6   1.00
   2068.8823000              0.0018663
    310.6495700              0.0142515
     70.6830330              0.0695516
     19.8610800              0.2325729
      6.2993048              0.4670787
      2.1270270              0.3634314
SP   3   1.00
      4.7279710             -0.1303938              0.0745976
      1.1903377             -0.1307889              0.3078467
      0.3594117              1.1309444              0.7434568
SP   1   1.00
      0.1267512              1.0000000              1.0000000
D    1   1.00
      0.8020000              1.0000000
D    1   1.00
      0.2005000              1.0000000
F    1   1.00
      0.5000000              1.0000000
****
C     0
S    6   1.00
   3047.5249000              0.0018347
    457.3695100              0.0140373
    103.9486900              0.0688426
     29.2101550              0.2321844
      9.2866630              0.4679413
      3.1639270              0.3623120
SP   3   1.00
      7.8682724             -0.1193324              0.0689991
      1.8812885             -0.1608542              0.3164240
      0.5442493              1.1434564              0.7443083
SP   1   1.00
      0.1687144              1.0000000              1.0000000
D    1   1.00
      1.2520000              1.0000000
D    1   1.00
      0.3130000              1.0000000
F    1   1.00
      0.8000000              1.0000000
****
N     0
S    6   1.00
   4173.5110000              0.0018348
    627.4579000              0.0139950
    142.9021000              0.0685870
     40.2343300              0.2322410
     12.8202100              0.4690700
      4.3904370              0.3604550
SP   3   1.00
     11.6263580             -0.1149610              0.0675800
      2.7162800             -0.1691180              0.3239070
      0.7722180              1.1458520              0.7408950
SP   1   1.00
      0.2120313              1.0000000              1.0000000
D    1   1.00
      1.8260000              1.0000000
D    1   1.00
      0.4565000              1.0000000
F    1   1.00
      1.0000000              1.0000000
****
O     0
S    6   1.00
   5484.6717000              0.0018311
    825.2349500              0.0139501
    188.0469600              0.0684451
     52.9645000              0.2327143
     16.8975700              0.4701930
      5.7996353              0.3585209
SP   3   1.00
     15.5396160             -0.1107775              0.0708743
      3.5999336             -0.1480263              0.3397528
      1.0137618              1.1307670              0.7271586
SP   1   1.00
      0.2700058              1.0000000              1.0000000
D    1   1.00
      2.5840000              1.0000000
D    1   1.00
      0.6460000              1.0000000
F    1   1.00
      1.4000000              1.0000000
****
F     0
S    6   1.00
   7001.7130900              0.0018196169
   1051.3660900              0.0139160796
    239.2856900              0.0684053245
     67.3974453              0.233185760
     21.5199573              0.471267439
      7.40310130             0.356618546
SP   3   1.00
     20.8479528             -0.108506975            0.0716287243
      4.80830834            -0.146451658            0.3459121030
      1.34406986             1.128688580            0.7224699570
SP   1   1.00
      0.358151393            1.0000000              1.0000000
D    1   1.00
      3.5000000              1.0000000
D    1   1.00
      0.8750000              1.0000000
F    1   1.00
      1.8500000              1.0000000
****
Al     0
S    6   1.00
  13983.1000000              0.00194267
   2098.7500000              0.0148599
    477.7050000              0.0728494
    134.3600000              0.2468300
     42.8709000              0.4872580
     14.5189000              0.3234960
SP   6   1.00
    239.6680000             -0.00292619             0.00460285
     57.4419000             -0.0374080              0.0331990
     18.2859000             -0.1144870              0.1362820
      6.5991400              0.1156350              0.3304760
      2.4904900              0.6125950              0.4491460
      0.9445400              0.3937990              0.2657040
SP   3   1.00
      1.2779000             -0.2276060             -0.0175130
      0.3975900              0.00144583             0.2445330
      0.1600950              1.0927900              0.8049340
SP   1   1.00
      0.0556577              1.0000000              1.0000000
D    1   1.00
      0.6500000              1.0000000
D    1   1.00
      0.1625000              1.0000000
F    1   1.00
      0.2500000              1.0000000
****
Si     0
S    6   1.00
  16115.9000000              0.00195948
   2425.5800000              0.01492880
    553.8670000              0.07284780
    156.3400000              0.24613000
     50.0683000              0.48591400
     17.0178000              0.32500200
SP   6   1.00
    292.7180000             -0.00278094             0.00443826
     69.8731000             -0.03571460             0.03266790
     22.3363000             -0.11498500             0.13472100
      8.1503900              0.09356340             0.32867800
      3.1345800              0.60301700             0.44964000
      1.2254300              0.41895900             0.26137200
SP   3   1.00
      1.7273800             -0.24463000            -0.01779510
      0.5729220              0.00431572             0.25353900
      0.2221920              1.09818000             0.80066900
SP   1   1.00
      0.0778369              1.00000000             1.00000000
D    1   1.00
      0.9000000              1.0000000
D    1   1.00
      0.2250000              1.0000000
F    1   1.00
      0.3200000              1.0000000
****
P     0
S    6   1.00
  19413.3000000              0.0018516
   2909.4200000              0.0142062
    661.3640000              0.0699995
    185.7590000              0.2400790
     59.1943000              0.4847620
     20.0310000              0.3352000
SP   6   1.00
    339.4780000             -0.00278217             0.00456462
     81.0101000             -0.0360499              0.03369360
     25.8780000             -0.1166310              0.13975500
      9.4522100              0.0968328              0.33936200
      3.6656600              0.6144180              0.45092100
      1.4674600              0.4037980              0.23858600
SP   3   1.00
      2.1562300             -0.2529230             -0.01776530
      0.7489970              0.0328517              0.27405800
      0.2831450              1.0812500              0.78542100
SP   1   1.00
      0.0998317              1.0000000              1.00000000
D    1   1.00
      1.1000000              1.0000000
D    1   1.00
      0.2750000              1.0000000
F    1   1.00
      0.4500000              1.0000000
****
S     0
S    6   1.00
  21917.1000000              0.0018690
   3301.4900000              0.0142300
    754.1460000              0.0696960
    212.7110000              0.2384870
     67.9896000              0.4833070
     23.0515000              0.3380740
SP   6   1.00
    423.7350000             -0.0023767              0.0040610
    100.7100000             -0.0316930              0.0306810
     32.1599000             -0.1133170              0.1304520
     11.8079000              0.0560900              0.3272050
      4.6311000              0.5922550              0.4528510
      1.8702500              0.4550060              0.2560420
SP   3   1.00
      2.6158400             -0.2503740             -0.0145110
      0.9221670              0.0669570              0.3102630
      0.3412870              1.0545100              0.7544830
SP   1   1.00
      0.1171670              1.0000000              1.0000000
D    1   1.00
      1.3000000              1.0000000
D    1   1.00
      0.3250000              1.0000000
F    1   1.00
      0.5500000              1.0000000
****
Cl     0
S    6   1.00
  25180.1000000              0.0018330
   3780.3500000              0.0140340
    860.4740000              0.0690970
    242.1450000              0.2374520
     77.3349000              0.4830340
     26.2470000              0.3398560
SP   6   1.00
    491.7650000             -0.0022974              0.0039894
    116.9840000             -0.0307140              0.0303180
     37.4153000             -0.1125280              0.1298800
     13.7834000              0.0450160              0.3279510
      5.4521500              0.5893530              0.4535270
      2.2258800              0.4652060              0.2521540
SP   3   1.00
      3.1864900             -0.2518300             -0.0142990
      1.1442700              0.0615890              0.3235720
      0.4203770              1.0601800              0.7435070
SP   1   1.00
      0.1426570              1.0000000              1.0000000
D    1   1.00
      1.5000000              1.0000000
D    1   1.00
      0.3750000              1.0000000
F    1   1.00
      0.7000000              1.0000000
****
}

set {
reference uhf
freeze_core true
e_convergence 10
d_convergence 10
dft_spherical_points 1202
dft_radial_points 99
}

e = energy('b3lyp')

print_out('Grab this energy {0}'.format(e))
--------------------------------------------------------------------------

    Molecular point group: c1

    Geometry (in Bohr), charge = 0, multiplicity = 2:

       Center              X                  Y                   Z               Mass
    ------------   -----------------  -----------------  -----------------  -----------------
         SI          -0.083126013341     0.000644328669     0.000000003953    27.976926534650
         H            0.769712706959    -1.341260966531    -2.314306454847     1.007825032230
         H            0.768128283759     2.664635549369    -0.000000031147     1.007825032230
         H            0.769712695659    -1.341260957231     2.314306376253     1.007825032230

  Charge       = 0
  Multiplicity = 2
  Basis Set: ANONYMOUS12F64824
    Blend: 6-31G_2DFP_
  Basis Set: (ANONYMOUS12F64824 AUX)
    Blend: DEF2-UNIVERSAL-JKFIT

    Orbital Energies [Eh]
    ---------------------

    Alpha Occupied:

       1A    -66.128480     2A     -5.287171     3A     -3.649495
       4A     -3.643401     5A     -3.643385     6A     -0.541177
       7A     -0.360572     8A     -0.359622     9A     -0.221661

    Alpha Virtual:

      10A      0.045064    11A      0.045851    12A      0.078512
      13A      0.144404    14A      0.216088    15A      0.216133
      16A      0.235386    17A      0.245614    18A      0.245725
      19A      0.381177    20A      0.453830    21A      0.454321
      22A      0.631187    23A      0.690203    24A      0.690452
      25A      0.699202    26A      0.773269    27A      0.774105
      28A      0.812551    29A      0.944028    30A      0.944441
      31A      1.103674    32A      1.185385    33A      1.186806
      34A      1.279987    35A      1.281297    36A      1.291741
      37A      1.340075    38A      1.614011    39A      1.648158
      40A      1.651747    41A      1.693556    42A      1.695428
      43A      1.783887    44A      1.890839    45A      1.892612
      46A      3.791555    47A      3.793312    48A      3.793773
      49A      3.851000    50A      3.856306    51A      3.856367
      52A      4.026297    53A      4.026778    54A      4.062092

    Beta Occupied:

       1A    -66.125185     2A     -5.283137     3A     -3.641047
       4A     -3.641032     5A     -3.639330     6A     -0.520688
       7A     -0.354304     8A     -0.353371

    Beta Virtual:

       9A     -0.104639    10A      0.056860    11A      0.057636
      12A      0.096757    13A      0.156007    14A      0.222628
      15A      0.222743    16A      0.266370    17A      0.270945
      18A      0.271144    19A      0.419994    20A      0.462554
      21A      0.463020    22A      0.632270    23A      0.707253
      24A      0.707397    25A      0.707949    26A      0.789452
      27A      0.790382    28A      0.821823    29A      0.958300
      30A      0.958715    31A      1.139191    32A      1.199830
      33A      1.201158    34A      1.299052    35A      1.299068
      36A      1.300658    37A      1.346660    38A      1.625702
      39A      1.655721    40A      1.659871    41A      1.706622
      42A      1.708017    43A      1.803358    44A      1.899502
      45A      1.901311    46A      3.794371    47A      3.797489
      48A      3.797921    49A      3.855128    50A      3.859167
      51A      3.859223    52A      4.030011    53A      4.030479
      54A      4.066547

    Final Occupation by Irrep:
              A
    DOCC [     8 ]
    SOCC [     1 ]

  @DF-UKS Final Energy:  -291.23885054177470

   => Energetics <=

    Nuclear Repulsion Energy =             15.6262874401150551
    One-Electron Energy =                -433.6963127703278928
    Two-Electron Energy =                 144.5622689343722982
    DFT Exchange-Correlation Energy =     -17.7310941459341436
    Empirical Dispersion Energy =           0.0000000000000000
    VV10 Nonlocal Energy =                  0.0000000000000000
    Total Energy =                       -291.2388505417746956

  UHF NO Occupations:
  HONO-2 :    7  A 1.9998721
  HONO-1 :    8  A 1.9992674
  HONO-0 :    9  A 1.0000000
  LUNO+0 :   10  A 0.0007326
  LUNO+1 :   11  A 0.0001279
  LUNO+2 :   12  A 0.0001268
  LUNO+3 :   13  A 0.0000002

Computation Completed

Properties will be evaluated at   0.000000,   0.000000,   0.000000 [a0]

Properties computed using the SCF density matrix

  Nuclear Dipole Moment: [e a0]
     X:     1.1438      Y:    -0.0089      Z:    -0.0000

  Electronic Dipole Moment: [e a0]
     X:    -1.1409      Y:     0.0133      Z:     0.0000

  Dipole Moment: [e a0]
     X:     0.0029      Y:     0.0045      Z:     0.0000     Total:     0.0053

  Dipole Moment: [D]
     X:     0.0074      Y:     0.0114      Z:     0.0000     Total:     0.0136

*** tstop() called on n089 at Thu Nov  4 14:20:46 2021
Module time:
	user time   =      13.81 seconds =       0.23 minutes
	system time =       0.22 seconds =       0.00 minutes
	total time  =         14 seconds =       0.23 minutes
Total time:
	user time   =      13.81 seconds =       0.23 minutes
	system time =       0.22 seconds =       0.00 minutes
	total time  =         14 seconds =       0.23 minutes
Grab this energy -291.2388505417747
    Psi4 stopped on: Thursday, 04 November 2021 02:20PM
    Psi4 wall time for execution: 0:00:14.06

*** Psi4 exiting successfully. Buy a developer a beer!
