                               Psi4 1.4a2.dev629

  ==> Input File <==

--------------------------------------------------------------------------
import os
memory 14 GB

molecule {
 C   -1.1708107180    0.1855858712    0.0000000000
 H   -2.5554829701   -1.4188727041    0.0000000000
 O    1.0385838835   -0.0502345584    0.0000000000
units bohr
0 2
}

basis {

assign 6-31g_2dfp_

[ 6-31g_2dfp_ ]

spherical

!----------------------------------------------------------------------
! Basis Set Exchange
! Version v0.8.13
! https://www.basissetexchange.org
!----------------------------------------------------------------------
!   Basis set: 6-31G(2df,p)
! Description: 6-31G(2df,p)
!        Role: orbital
!     Version: 0  (Data from the original Basis Set Exchange)
!----------------------------------------------------------------------

****
H     0
S    3   1.00
     18.7311370              0.03349460
      2.8253937              0.23472695
      0.6401217              0.81375733
S    1   1.00
      0.1612778              1.00000000
P    1   1.00
      1.5000000              1.0000000
P    1   1.00
      0.3750000              1.0000000
****
B     0
S    6   1.00
   2068.8823000              0.0018663
    310.6495700              0.0142515
     70.6830330              0.0695516
     19.8610800              0.2325729
      6.2993048              0.4670787
      2.1270270              0.3634314
SP   3   1.00
      4.7279710             -0.1303938              0.0745976
      1.1903377             -0.1307889              0.3078467
      0.3594117              1.1309444              0.7434568
SP   1   1.00
      0.1267512              1.0000000              1.0000000
D    1   1.00
      0.8020000              1.0000000
D    1   1.00
      0.2005000              1.0000000
F    1   1.00
      0.5000000              1.0000000
****
C     0
S    6   1.00
   3047.5249000              0.0018347
    457.3695100              0.0140373
    103.9486900              0.0688426
     29.2101550              0.2321844
      9.2866630              0.4679413
      3.1639270              0.3623120
SP   3   1.00
      7.8682724             -0.1193324              0.0689991
      1.8812885             -0.1608542              0.3164240
      0.5442493              1.1434564              0.7443083
SP   1   1.00
      0.1687144              1.0000000              1.0000000
D    1   1.00
      1.2520000              1.0000000
D    1   1.00
      0.3130000              1.0000000
F    1   1.00
      0.8000000              1.0000000
****
N     0
S    6   1.00
   4173.5110000              0.0018348
    627.4579000              0.0139950
    142.9021000              0.0685870
     40.2343300              0.2322410
     12.8202100              0.4690700
      4.3904370              0.3604550
SP   3   1.00
     11.6263580             -0.1149610              0.0675800
      2.7162800             -0.1691180              0.3239070
      0.7722180              1.1458520              0.7408950
SP   1   1.00
      0.2120313              1.0000000              1.0000000
D    1   1.00
      1.8260000              1.0000000
D    1   1.00
      0.4565000              1.0000000
F    1   1.00
      1.0000000              1.0000000
****
O     0
S    6   1.00
   5484.6717000              0.0018311
    825.2349500              0.0139501
    188.0469600              0.0684451
     52.9645000              0.2327143
     16.8975700              0.4701930
      5.7996353              0.3585209
SP   3   1.00
     15.5396160             -0.1107775              0.0708743
      3.5999336             -0.1480263              0.3397528
      1.0137618              1.1307670              0.7271586
SP   1   1.00
      0.2700058              1.0000000              1.0000000
D    1   1.00
      2.5840000              1.0000000
D    1   1.00
      0.6460000              1.0000000
F    1   1.00
      1.4000000              1.0000000
****
F     0
S    6   1.00
   7001.7130900              0.0018196169
   1051.3660900              0.0139160796
    239.2856900              0.0684053245
     67.3974453              0.233185760
     21.5199573              0.471267439
      7.40310130             0.356618546
SP   3   1.00
     20.8479528             -0.108506975            0.0716287243
      4.80830834            -0.146451658            0.3459121030
      1.34406986             1.128688580            0.7224699570
SP   1   1.00
      0.358151393            1.0000000              1.0000000
D    1   1.00
      3.5000000              1.0000000
D    1   1.00
      0.8750000              1.0000000
F    1   1.00
      1.8500000              1.0000000
****
Al     0
S    6   1.00
  13983.1000000              0.00194267
   2098.7500000              0.0148599
    477.7050000              0.0728494
    134.3600000              0.2468300
     42.8709000              0.4872580
     14.5189000              0.3234960
SP   6   1.00
    239.6680000             -0.00292619             0.00460285
     57.4419000             -0.0374080              0.0331990
     18.2859000             -0.1144870              0.1362820
      6.5991400              0.1156350              0.3304760
      2.4904900              0.6125950              0.4491460
      0.9445400              0.3937990              0.2657040
SP   3   1.00
      1.2779000             -0.2276060             -0.0175130
      0.3975900              0.00144583             0.2445330
      0.1600950              1.0927900              0.8049340
SP   1   1.00
      0.0556577              1.0000000              1.0000000
D    1   1.00
      0.6500000              1.0000000
D    1   1.00
      0.1625000              1.0000000
F    1   1.00
      0.2500000              1.0000000
****
Si     0
S    6   1.00
  16115.9000000              0.00195948
   2425.5800000              0.01492880
    553.8670000              0.07284780
    156.3400000              0.24613000
     50.0683000              0.48591400
     17.0178000              0.32500200
SP   6   1.00
    292.7180000             -0.00278094             0.00443826
     69.8731000             -0.03571460             0.03266790
     22.3363000             -0.11498500             0.13472100
      8.1503900              0.09356340             0.32867800
      3.1345800              0.60301700             0.44964000
      1.2254300              0.41895900             0.26137200
SP   3   1.00
      1.7273800             -0.24463000            -0.01779510
      0.5729220              0.00431572             0.25353900
      0.2221920              1.09818000             0.80066900
SP   1   1.00
      0.0778369              1.00000000             1.00000000
D    1   1.00
      0.9000000              1.0000000
D    1   1.00
      0.2250000              1.0000000
F    1   1.00
      0.3200000              1.0000000
****
P     0
S    6   1.00
  19413.3000000              0.0018516
   2909.4200000              0.0142062
    661.3640000              0.0699995
    185.7590000              0.2400790
     59.1943000              0.4847620
     20.0310000              0.3352000
SP   6   1.00
    339.4780000             -0.00278217             0.00456462
     81.0101000             -0.0360499              0.03369360
     25.8780000             -0.1166310              0.13975500
      9.4522100              0.0968328              0.33936200
      3.6656600              0.6144180              0.45092100
      1.4674600              0.4037980              0.23858600
SP   3   1.00
      2.1562300             -0.2529230             -0.01776530
      0.7489970              0.0328517              0.27405800
      0.2831450              1.0812500              0.78542100
SP   1   1.00
      0.0998317              1.0000000              1.00000000
D    1   1.00
      1.1000000              1.0000000
D    1   1.00
      0.2750000              1.0000000
F    1   1.00
      0.4500000              1.0000000
****
S     0
S    6   1.00
  21917.1000000              0.0018690
   3301.4900000              0.0142300
    754.1460000              0.0696960
    212.7110000              0.2384870
     67.9896000              0.4833070
     23.0515000              0.3380740
SP   6   1.00
    423.7350000             -0.0023767              0.0040610
    100.7100000             -0.0316930              0.0306810
     32.1599000             -0.1133170              0.1304520
     11.8079000              0.0560900              0.3272050
      4.6311000              0.5922550              0.4528510
      1.8702500              0.4550060              0.2560420
SP   3   1.00
      2.6158400             -0.2503740             -0.0145110
      0.9221670              0.0669570              0.3102630
      0.3412870              1.0545100              0.7544830
SP   1   1.00
      0.1171670              1.0000000              1.0000000
D    1   1.00
      1.3000000              1.0000000
D    1   1.00
      0.3250000              1.0000000
F    1   1.00
      0.5500000              1.0000000
****
Cl     0
S    6   1.00
  25180.1000000              0.0018330
   3780.3500000              0.0140340
    860.4740000              0.0690970
    242.1450000              0.2374520
     77.3349000              0.4830340
     26.2470000              0.3398560
SP   6   1.00
    491.7650000             -0.0022974              0.0039894
    116.9840000             -0.0307140              0.0303180
     37.4153000             -0.1125280              0.1298800
     13.7834000              0.0450160              0.3279510
      5.4521500              0.5893530              0.4535270
      2.2258800              0.4652060              0.2521540
SP   3   1.00
      3.1864900             -0.2518300             -0.0142990
      1.1442700              0.0615890              0.3235720
      0.4203770              1.0601800              0.7435070
SP   1   1.00
      0.1426570              1.0000000              1.0000000
D    1   1.00
      1.5000000              1.0000000
D    1   1.00
      0.3750000              1.0000000
F    1   1.00
      0.7000000              1.0000000
****
}

set {
reference uhf
freeze_core true
e_convergence 10
d_convergence 10
dft_spherical_points 1202
dft_radial_points 99
}

e = energy('b3lyp')

print_out('Grab this energy {0}'.format(e))
--------------------------------------------------------------------------

    Molecular point group: cs

    Geometry (in Bohr), charge = 0, multiplicity = 2:

       Center              X                  Y                   Z               Mass
    ------------   -----------------  -----------------  -----------------  -----------------
         C           -1.170357389073     0.185808003556     0.000000000000    12.000000000000
         H           -2.555029641173    -1.418650571744     0.000000000000     1.007825032230
         O            1.039037212427    -0.050012426044     0.000000000000    15.994914619570

  Charge       = 0
  Multiplicity = 2
  Basis Set: ANONYMOUSBC2E3F16
    Blend: 6-31G_2DFP_
  Basis Set: (ANONYMOUSBC2E3F16 AUX)
    Blend: DEF2-UNIVERSAL-JKFIT

    Orbital Energies [Eh]
    ---------------------

    Alpha Occupied:

       1Ap   -19.212045     2Ap   -10.284481     3Ap    -1.106392
       4Ap    -0.615376     5Ap    -0.498016     6Ap    -0.436031
       1App   -0.430811     7Ap    -0.213165

    Alpha Virtual:

       2App   -0.041620     8Ap     0.119288     9Ap     0.222092
      10Ap     0.465858     3App    0.500354    11Ap     0.521989
       4App    0.559442    12Ap     0.584356    13Ap     0.624132
      14Ap     0.689654     5App    0.776597    15Ap     0.784831
       6App    0.901346    16Ap     0.927437    17Ap     0.984545
       7App    1.020620    18Ap     1.194888    19Ap     1.342264
      20Ap     1.510953    21Ap     1.559539     8App    1.591098
      22Ap     1.820732     9App    1.923203    23Ap     2.089933
      24Ap     2.502884    10App    2.794390    25Ap     2.819184
      11App    2.908778    26Ap     2.974290    27Ap     3.102851
      12App    3.159914    13App    3.216514    28Ap     3.271008
      29Ap     3.348610    14App    3.419367    30Ap     3.654260
      31Ap     3.786519    15App    4.014885    32Ap     4.233932
      33Ap     4.794535    16App    5.014407    34Ap     5.033983
      17App    5.413458    35Ap     5.484708    36Ap     5.760196
      18App    5.894144    37Ap     5.995398    38Ap     6.736461
      19App    6.738966    20App    7.002370    39Ap     7.078816
      40Ap     7.503298

    Beta Occupied:

       1Ap   -19.203476     2Ap   -10.274786     3Ap    -1.090164
       4Ap    -0.587762     5Ap    -0.474658     1App   -0.423195
       6Ap    -0.383225

    Beta Virtual:

       7Ap    -0.068553     2App   -0.024902     8Ap     0.137644
       9Ap     0.229507    10Ap     0.499348     3App    0.510037
      11Ap     0.546909     4App    0.578637    12Ap     0.599002
      13Ap     0.652877    14Ap     0.716329     5App    0.789824
      15Ap     0.793362     6App    0.907504    16Ap     0.951929
      17Ap     0.998775     7App    1.031650    18Ap     1.217394
      19Ap     1.358568    20Ap     1.528187    21Ap     1.573392
       8App    1.608427    22Ap     1.846763     9App    1.928337
      23Ap     2.113618    24Ap     2.514418    10App    2.818814
      25Ap     2.847098    11App    2.928917    26Ap     3.007823
      27Ap     3.144622    12App    3.198833    13App    3.243142
      28Ap     3.285742    29Ap     3.378285    14App    3.429730
      30Ap     3.684495    31Ap     3.810630    15App    4.045772
      32Ap     4.271305    33Ap     4.824911    16App    5.033770
      34Ap     5.052355    17App    5.429227    35Ap     5.499057
      36Ap     5.774299    18App    5.899337    37Ap     6.019054
      38Ap     6.767626    19App    6.770653    20App    7.006781
      39Ap     7.109946    40Ap     7.515328

    Final Occupation by Irrep:
             Ap   App
    DOCC [     6,    1 ]
    SOCC [     1,    0 ]

  @DF-UKS Final Energy:  -113.85557922454709

   => Energetics <=

    Nuclear Repulsion Energy =             26.5139421371534993
    One-Electron Energy =                -207.1915157972887869
    Two-Electron Energy =                  78.3857477507363711
    DFT Exchange-Correlation Energy =     -11.5637533151481602
    Empirical Dispersion Energy =           0.0000000000000000
    VV10 Nonlocal Energy =                  0.0000000000000000
    Total Energy =                       -113.8555792245470855

  UHF NO Occupations:
  HONO-2 :    5 Ap 1.9995510
  HONO-1 :    6 Ap 1.9991916
  HONO-0 :    7 Ap 1.0000000
  LUNO+0 :    8 Ap 0.0008084
  LUNO+1 :    9 Ap 0.0004490
  LUNO+2 :    2App 0.0001619
  LUNO+3 :   10 Ap 0.0000691

Computation Completed

Properties will be evaluated at   0.000000,   0.000000,   0.000000 [a0]

Properties computed using the SCF density matrix

  Nuclear Dipole Moment: [e a0]
     X:    -1.2649      Y:    -0.7039      Z:     0.0000

  Electronic Dipole Moment: [e a0]
     X:     0.7400      Y:     0.4315      Z:     0.0000

  Dipole Moment: [e a0]
     X:    -0.5249      Y:    -0.2724      Z:     0.0000     Total:     0.5913

  Dipole Moment: [D]
     X:    -1.3341      Y:    -0.6923      Z:     0.0000     Total:     1.5030

*** tstop() called on n036 at Tue Mar 15 10:44:37 2022
Module time:
	user time   =      19.06 seconds =       0.32 minutes
	system time =       0.14 seconds =       0.00 minutes
	total time  =         19 seconds =       0.32 minutes
Total time:
	user time   =      19.06 seconds =       0.32 minutes
	system time =       0.14 seconds =       0.00 minutes
	total time  =         19 seconds =       0.32 minutes
Grab this energy -113.85557922454709
    Psi4 stopped on: Tuesday, 15 March 2022 10:44AM
    Psi4 wall time for execution: 0:00:19.24

*** Psi4 exiting successfully. Buy a developer a beer!
