                               Psi4 1.4a2.dev629

  ==> Input File <==

--------------------------------------------------------------------------
import os
memory 14 GB

molecule {
 C   -1.1713525043    0.1871181215    0.0000000000
 H   -2.5644255253   -1.4231812329    0.0000000000
 O    1.0480682251   -0.0474582799    0.0000000000
units bohr
0 2
}

basis {

assign 6-31g_2dfp_

[ 6-31g_2dfp_ ]

spherical

!----------------------------------------------------------------------
! Basis Set Exchange
! Version v0.8.13
! https://www.basissetexchange.org
!----------------------------------------------------------------------
!   Basis set: 6-31G(2df,p)
! Description: 6-31G(2df,p)
!        Role: orbital
!     Version: 0  (Data from the original Basis Set Exchange)
!----------------------------------------------------------------------

****
H     0
S    3   1.00
     18.7311370              0.03349460
      2.8253937              0.23472695
      0.6401217              0.81375733
S    1   1.00
      0.1612778              1.00000000
P    1   1.00
      1.5000000              1.0000000
P    1   1.00
      0.3750000              1.0000000
****
B     0
S    6   1.00
   2068.8823000              0.0018663
    310.6495700              0.0142515
     70.6830330              0.0695516
     19.8610800              0.2325729
      6.2993048              0.4670787
      2.1270270              0.3634314
SP   3   1.00
      4.7279710             -0.1303938              0.0745976
      1.1903377             -0.1307889              0.3078467
      0.3594117              1.1309444              0.7434568
SP   1   1.00
      0.1267512              1.0000000              1.0000000
D    1   1.00
      0.8020000              1.0000000
D    1   1.00
      0.2005000              1.0000000
F    1   1.00
      0.5000000              1.0000000
****
C     0
S    6   1.00
   3047.5249000              0.0018347
    457.3695100              0.0140373
    103.9486900              0.0688426
     29.2101550              0.2321844
      9.2866630              0.4679413
      3.1639270              0.3623120
SP   3   1.00
      7.8682724             -0.1193324              0.0689991
      1.8812885             -0.1608542              0.3164240
      0.5442493              1.1434564              0.7443083
SP   1   1.00
      0.1687144              1.0000000              1.0000000
D    1   1.00
      1.2520000              1.0000000
D    1   1.00
      0.3130000              1.0000000
F    1   1.00
      0.8000000              1.0000000
****
N     0
S    6   1.00
   4173.5110000              0.0018348
    627.4579000              0.0139950
    142.9021000              0.0685870
     40.2343300              0.2322410
     12.8202100              0.4690700
      4.3904370              0.3604550
SP   3   1.00
     11.6263580             -0.1149610              0.0675800
      2.7162800             -0.1691180              0.3239070
      0.7722180              1.1458520              0.7408950
SP   1   1.00
      0.2120313              1.0000000              1.0000000
D    1   1.00
      1.8260000              1.0000000
D    1   1.00
      0.4565000              1.0000000
F    1   1.00
      1.0000000              1.0000000
****
O     0
S    6   1.00
   5484.6717000              0.0018311
    825.2349500              0.0139501
    188.0469600              0.0684451
     52.9645000              0.2327143
     16.8975700              0.4701930
      5.7996353              0.3585209
SP   3   1.00
     15.5396160             -0.1107775              0.0708743
      3.5999336             -0.1480263              0.3397528
      1.0137618              1.1307670              0.7271586
SP   1   1.00
      0.2700058              1.0000000              1.0000000
D    1   1.00
      2.5840000              1.0000000
D    1   1.00
      0.6460000              1.0000000
F    1   1.00
      1.4000000              1.0000000
****
F     0
S    6   1.00
   7001.7130900              0.0018196169
   1051.3660900              0.0139160796
    239.2856900              0.0684053245
     67.3974453              0.233185760
     21.5199573              0.471267439
      7.40310130             0.356618546
SP   3   1.00
     20.8479528             -0.108506975            0.0716287243
      4.80830834            -0.146451658            0.3459121030
      1.34406986             1.128688580            0.7224699570
SP   1   1.00
      0.358151393            1.0000000              1.0000000
D    1   1.00
      3.5000000              1.0000000
D    1   1.00
      0.8750000              1.0000000
F    1   1.00
      1.8500000              1.0000000
****
Al     0
S    6   1.00
  13983.1000000              0.00194267
   2098.7500000              0.0148599
    477.7050000              0.0728494
    134.3600000              0.2468300
     42.8709000              0.4872580
     14.5189000              0.3234960
SP   6   1.00
    239.6680000             -0.00292619             0.00460285
     57.4419000             -0.0374080              0.0331990
     18.2859000             -0.1144870              0.1362820
      6.5991400              0.1156350              0.3304760
      2.4904900              0.6125950              0.4491460
      0.9445400              0.3937990              0.2657040
SP   3   1.00
      1.2779000             -0.2276060             -0.0175130
      0.3975900              0.00144583             0.2445330
      0.1600950              1.0927900              0.8049340
SP   1   1.00
      0.0556577              1.0000000              1.0000000
D    1   1.00
      0.6500000              1.0000000
D    1   1.00
      0.1625000              1.0000000
F    1   1.00
      0.2500000              1.0000000
****
Si     0
S    6   1.00
  16115.9000000              0.00195948
   2425.5800000              0.01492880
    553.8670000              0.07284780
    156.3400000              0.24613000
     50.0683000              0.48591400
     17.0178000              0.32500200
SP   6   1.00
    292.7180000             -0.00278094             0.00443826
     69.8731000             -0.03571460             0.03266790
     22.3363000             -0.11498500             0.13472100
      8.1503900              0.09356340             0.32867800
      3.1345800              0.60301700             0.44964000
      1.2254300              0.41895900             0.26137200
SP   3   1.00
      1.7273800             -0.24463000            -0.01779510
      0.5729220              0.00431572             0.25353900
      0.2221920              1.09818000             0.80066900
SP   1   1.00
      0.0778369              1.00000000             1.00000000
D    1   1.00
      0.9000000              1.0000000
D    1   1.00
      0.2250000              1.0000000
F    1   1.00
      0.3200000              1.0000000
****
P     0
S    6   1.00
  19413.3000000              0.0018516
   2909.4200000              0.0142062
    661.3640000              0.0699995
    185.7590000              0.2400790
     59.1943000              0.4847620
     20.0310000              0.3352000
SP   6   1.00
    339.4780000             -0.00278217             0.00456462
     81.0101000             -0.0360499              0.03369360
     25.8780000             -0.1166310              0.13975500
      9.4522100              0.0968328              0.33936200
      3.6656600              0.6144180              0.45092100
      1.4674600              0.4037980              0.23858600
SP   3   1.00
      2.1562300             -0.2529230             -0.01776530
      0.7489970              0.0328517              0.27405800
      0.2831450              1.0812500              0.78542100
SP   1   1.00
      0.0998317              1.0000000              1.00000000
D    1   1.00
      1.1000000              1.0000000
D    1   1.00
      0.2750000              1.0000000
F    1   1.00
      0.4500000              1.0000000
****
S     0
S    6   1.00
  21917.1000000              0.0018690
   3301.4900000              0.0142300
    754.1460000              0.0696960
    212.7110000              0.2384870
     67.9896000              0.4833070
     23.0515000              0.3380740
SP   6   1.00
    423.7350000             -0.0023767              0.0040610
    100.7100000             -0.0316930              0.0306810
     32.1599000             -0.1133170              0.1304520
     11.8079000              0.0560900              0.3272050
      4.6311000              0.5922550              0.4528510
      1.8702500              0.4550060              0.2560420
SP   3   1.00
      2.6158400             -0.2503740             -0.0145110
      0.9221670              0.0669570              0.3102630
      0.3412870              1.0545100              0.7544830
SP   1   1.00
      0.1171670              1.0000000              1.0000000
D    1   1.00
      1.3000000              1.0000000
D    1   1.00
      0.3250000              1.0000000
F    1   1.00
      0.5500000              1.0000000
****
Cl     0
S    6   1.00
  25180.1000000              0.0018330
   3780.3500000              0.0140340
    860.4740000              0.0690970
    242.1450000              0.2374520
     77.3349000              0.4830340
     26.2470000              0.3398560
SP   6   1.00
    491.7650000             -0.0022974              0.0039894
    116.9840000             -0.0307140              0.0303180
     37.4153000             -0.1125280              0.1298800
     13.7834000              0.0450160              0.3279510
      5.4521500              0.5893530              0.4535270
      2.2258800              0.4652060              0.2521540
SP   3   1.00
      3.1864900             -0.2518300             -0.0142990
      1.1442700              0.0615890              0.3235720
      0.4203770              1.0601800              0.7435070
SP   1   1.00
      0.1426570              1.0000000              1.0000000
D    1   1.00
      1.5000000              1.0000000
D    1   1.00
      0.3750000              1.0000000
F    1   1.00
      0.7000000              1.0000000
****
}

set {
reference uhf
freeze_core true
e_convergence 10
d_convergence 10
dft_spherical_points 1202
dft_radial_points 99
}

e = energy('b3lyp')

print_out('Grab this energy {0}'.format(e))
--------------------------------------------------------------------------

    Molecular point group: cs

    Geometry (in Bohr), charge = 0, multiplicity = 2:

       Center              X                  Y                   Z               Mass
    ------------   -----------------  -----------------  -----------------  -----------------
         C           -1.175594844443     0.185324889146     0.000000000000    12.000000000000
         H           -2.568667865443    -1.424974465254     0.000000000000     1.007825032230
         O            1.043825884957    -0.049251512254     0.000000000000    15.994914619570

  Charge       = 0
  Multiplicity = 2
  Basis Set: ANONYMOUSF5CAA9F8
    Blend: 6-31G_2DFP_
  Basis Set: (ANONYMOUSF5CAA9F8 AUX)
    Blend: DEF2-UNIVERSAL-JKFIT

    Orbital Energies [Eh]
    ---------------------

    Alpha Occupied:

       1Ap   -19.212415     2Ap   -10.286112     3Ap    -1.103670
       4Ap    -0.615054     5Ap    -0.496969     6Ap    -0.434951
       1App   -0.429174     7Ap    -0.214441

    Alpha Virtual:

       2App   -0.043287     8Ap     0.117410     9Ap     0.221373
      10Ap     0.464482     3App    0.500353    11Ap     0.522683
       4App    0.559189    12Ap     0.580936    13Ap     0.622739
      14Ap     0.688118     5App    0.774548    15Ap     0.783666
       6App    0.902268    16Ap     0.927327    17Ap     0.981951
       7App    1.019132    18Ap     1.191182    19Ap     1.340256
      20Ap     1.507883    21Ap     1.557454     8App    1.589072
      22Ap     1.814925     9App    1.920397    23Ap     2.089236
      24Ap     2.494247    10App    2.793733    25Ap     2.817686
      11App    2.907063    26Ap     2.974234    27Ap     3.103837
      12App    3.160936    13App    3.217546    28Ap     3.264537
      29Ap     3.344609    14App    3.416056    30Ap     3.647845
      31Ap     3.776271    15App    4.006807    32Ap     4.226446
      33Ap     4.785234    16App    5.013750    34Ap     5.031840
      17App    5.405428    35Ap     5.478117    36Ap     5.762024
      18App    5.885541    37Ap     5.983440    38Ap     6.735688
      19App    6.738100    20App    7.003471    39Ap     7.078971
      40Ap     7.499587

    Beta Occupied:

       1Ap   -19.203860     2Ap   -10.276398     3Ap    -1.087393
       4Ap    -0.587413     5Ap    -0.473656     1App   -0.421582
       6Ap    -0.382140

    Beta Virtual:

       7Ap    -0.069913     2App   -0.026569     8Ap     0.135929
       9Ap     0.228932    10Ap     0.497777     3App    0.510151
      11Ap     0.547790     4App    0.578275    12Ap     0.595472
      13Ap     0.651747    14Ap     0.714447     5App    0.787831
      15Ap     0.792367     6App    0.908438    16Ap     0.951449
      17Ap     0.996424     7App    1.030113    18Ap     1.213667
      19Ap     1.356646    20Ap     1.525610    21Ap     1.570697
       8App    1.606313    22Ap     1.840841     9App    1.925532
      23Ap     2.112892    24Ap     2.505778    10App    2.818337
      25Ap     2.845704    11App    2.926997    26Ap     3.007305
      27Ap     3.146099    12App    3.199953    13App    3.244154
      28Ap     3.279192    29Ap     3.374129    14App    3.426420
      30Ap     3.677646    31Ap     3.800888    15App    4.037869
      32Ap     4.263830    33Ap     4.815666    16App    5.033066
      34Ap     5.050161    17App    5.421135    35Ap     5.492644
      36Ap     5.776004    18App    5.890722    37Ap     6.007071
      38Ap     6.766783    19App    6.769714    20App    7.007886
      39Ap     7.110085    40Ap     7.511624

    Final Occupation by Irrep:
             Ap   App
    DOCC [     6,    1 ]
    SOCC [     1,    0 ]

  @DF-UKS Final Energy:  -113.85557251021218

   => Energetics <=

    Nuclear Repulsion Energy =             26.3949055475720336
    One-Electron Energy =                -206.9654027686904669
    Two-Electron Energy =                  78.2734084460787471
    DFT Exchange-Correlation Energy =     -11.5584837351724872
    Empirical Dispersion Energy =           0.0000000000000000
    VV10 Nonlocal Energy =                  0.0000000000000000
    Total Energy =                       -113.8555725102121841

  UHF NO Occupations:
  HONO-2 :    5 Ap 1.9995419
  HONO-1 :    6 Ap 1.9991867
  HONO-0 :    7 Ap 1.0000000
  LUNO+0 :    8 Ap 0.0008133
  LUNO+1 :    9 Ap 0.0004581
  LUNO+2 :    2App 0.0001654
  LUNO+3 :   10 Ap 0.0000692

Computation Completed

Properties will be evaluated at   0.000000,   0.000000,   0.000000 [a0]

Properties computed using the SCF density matrix

  Nuclear Dipole Moment: [e a0]
     X:    -1.2716      Y:    -0.7070      Z:     0.0000

  Electronic Dipole Moment: [e a0]
     X:     0.7401      Y:     0.4341      Z:     0.0000

  Dipole Moment: [e a0]
     X:    -0.5315      Y:    -0.2729      Z:     0.0000     Total:     0.5975

  Dipole Moment: [D]
     X:    -1.3509      Y:    -0.6936      Z:     0.0000     Total:     1.5186

*** tstop() called on n023 at Tue Mar 15 10:44:37 2022
Module time:
	user time   =      18.85 seconds =       0.31 minutes
	system time =       0.14 seconds =       0.00 minutes
	total time  =         19 seconds =       0.32 minutes
Total time:
	user time   =      18.85 seconds =       0.31 minutes
	system time =       0.14 seconds =       0.00 minutes
	total time  =         19 seconds =       0.32 minutes
Grab this energy -113.85557251021218
    Psi4 stopped on: Tuesday, 15 March 2022 10:44AM
    Psi4 wall time for execution: 0:00:19.04

*** Psi4 exiting successfully. Buy a developer a beer!
