                               Psi4 1.4a2.dev629

  ==> Input File <==

--------------------------------------------------------------------------
import os
memory 14 GB

molecule {
 C   -1.1767999200    0.1924716800    0.0000000000
 H   -2.5587616700   -1.4126831900    0.0000000000
 O    1.0441058000   -0.0553877700    0.0000000000
units bohr
0 2
}

basis {

assign 6-31g_2dfp_

[ 6-31g_2dfp_ ]

spherical

!----------------------------------------------------------------------
! Basis Set Exchange
! Version v0.8.13
! https://www.basissetexchange.org
!----------------------------------------------------------------------
!   Basis set: 6-31G(2df,p)
! Description: 6-31G(2df,p)
!        Role: orbital
!     Version: 0  (Data from the original Basis Set Exchange)
!----------------------------------------------------------------------

****
H     0
S    3   1.00
     18.7311370              0.03349460
      2.8253937              0.23472695
      0.6401217              0.81375733
S    1   1.00
      0.1612778              1.00000000
P    1   1.00
      1.5000000              1.0000000
P    1   1.00
      0.3750000              1.0000000
****
B     0
S    6   1.00
   2068.8823000              0.0018663
    310.6495700              0.0142515
     70.6830330              0.0695516
     19.8610800              0.2325729
      6.2993048              0.4670787
      2.1270270              0.3634314
SP   3   1.00
      4.7279710             -0.1303938              0.0745976
      1.1903377             -0.1307889              0.3078467
      0.3594117              1.1309444              0.7434568
SP   1   1.00
      0.1267512              1.0000000              1.0000000
D    1   1.00
      0.8020000              1.0000000
D    1   1.00
      0.2005000              1.0000000
F    1   1.00
      0.5000000              1.0000000
****
C     0
S    6   1.00
   3047.5249000              0.0018347
    457.3695100              0.0140373
    103.9486900              0.0688426
     29.2101550              0.2321844
      9.2866630              0.4679413
      3.1639270              0.3623120
SP   3   1.00
      7.8682724             -0.1193324              0.0689991
      1.8812885             -0.1608542              0.3164240
      0.5442493              1.1434564              0.7443083
SP   1   1.00
      0.1687144              1.0000000              1.0000000
D    1   1.00
      1.2520000              1.0000000
D    1   1.00
      0.3130000              1.0000000
F    1   1.00
      0.8000000              1.0000000
****
N     0
S    6   1.00
   4173.5110000              0.0018348
    627.4579000              0.0139950
    142.9021000              0.0685870
     40.2343300              0.2322410
     12.8202100              0.4690700
      4.3904370              0.3604550
SP   3   1.00
     11.6263580             -0.1149610              0.0675800
      2.7162800             -0.1691180              0.3239070
      0.7722180              1.1458520              0.7408950
SP   1   1.00
      0.2120313              1.0000000              1.0000000
D    1   1.00
      1.8260000              1.0000000
D    1   1.00
      0.4565000              1.0000000
F    1   1.00
      1.0000000              1.0000000
****
O     0
S    6   1.00
   5484.6717000              0.0018311
    825.2349500              0.0139501
    188.0469600              0.0684451
     52.9645000              0.2327143
     16.8975700              0.4701930
      5.7996353              0.3585209
SP   3   1.00
     15.5396160             -0.1107775              0.0708743
      3.5999336             -0.1480263              0.3397528
      1.0137618              1.1307670              0.7271586
SP   1   1.00
      0.2700058              1.0000000              1.0000000
D    1   1.00
      2.5840000              1.0000000
D    1   1.00
      0.6460000              1.0000000
F    1   1.00
      1.4000000              1.0000000
****
F     0
S    6   1.00
   7001.7130900              0.0018196169
   1051.3660900              0.0139160796
    239.2856900              0.0684053245
     67.3974453              0.233185760
     21.5199573              0.471267439
      7.40310130             0.356618546
SP   3   1.00
     20.8479528             -0.108506975            0.0716287243
      4.80830834            -0.146451658            0.3459121030
      1.34406986             1.128688580            0.7224699570
SP   1   1.00
      0.358151393            1.0000000              1.0000000
D    1   1.00
      3.5000000              1.0000000
D    1   1.00
      0.8750000              1.0000000
F    1   1.00
      1.8500000              1.0000000
****
Al     0
S    6   1.00
  13983.1000000              0.00194267
   2098.7500000              0.0148599
    477.7050000              0.0728494
    134.3600000              0.2468300
     42.8709000              0.4872580
     14.5189000              0.3234960
SP   6   1.00
    239.6680000             -0.00292619             0.00460285
     57.4419000             -0.0374080              0.0331990
     18.2859000             -0.1144870              0.1362820
      6.5991400              0.1156350              0.3304760
      2.4904900              0.6125950              0.4491460
      0.9445400              0.3937990              0.2657040
SP   3   1.00
      1.2779000             -0.2276060             -0.0175130
      0.3975900              0.00144583             0.2445330
      0.1600950              1.0927900              0.8049340
SP   1   1.00
      0.0556577              1.0000000              1.0000000
D    1   1.00
      0.6500000              1.0000000
D    1   1.00
      0.1625000              1.0000000
F    1   1.00
      0.2500000              1.0000000
****
Si     0
S    6   1.00
  16115.9000000              0.00195948
   2425.5800000              0.01492880
    553.8670000              0.07284780
    156.3400000              0.24613000
     50.0683000              0.48591400
     17.0178000              0.32500200
SP   6   1.00
    292.7180000             -0.00278094             0.00443826
     69.8731000             -0.03571460             0.03266790
     22.3363000             -0.11498500             0.13472100
      8.1503900              0.09356340             0.32867800
      3.1345800              0.60301700             0.44964000
      1.2254300              0.41895900             0.26137200
SP   3   1.00
      1.7273800             -0.24463000            -0.01779510
      0.5729220              0.00431572             0.25353900
      0.2221920              1.09818000             0.80066900
SP   1   1.00
      0.0778369              1.00000000             1.00000000
D    1   1.00
      0.9000000              1.0000000
D    1   1.00
      0.2250000              1.0000000
F    1   1.00
      0.3200000              1.0000000
****
P     0
S    6   1.00
  19413.3000000              0.0018516
   2909.4200000              0.0142062
    661.3640000              0.0699995
    185.7590000              0.2400790
     59.1943000              0.4847620
     20.0310000              0.3352000
SP   6   1.00
    339.4780000             -0.00278217             0.00456462
     81.0101000             -0.0360499              0.03369360
     25.8780000             -0.1166310              0.13975500
      9.4522100              0.0968328              0.33936200
      3.6656600              0.6144180              0.45092100
      1.4674600              0.4037980              0.23858600
SP   3   1.00
      2.1562300             -0.2529230             -0.01776530
      0.7489970              0.0328517              0.27405800
      0.2831450              1.0812500              0.78542100
SP   1   1.00
      0.0998317              1.0000000              1.00000000
D    1   1.00
      1.1000000              1.0000000
D    1   1.00
      0.2750000              1.0000000
F    1   1.00
      0.4500000              1.0000000
****
S     0
S    6   1.00
  21917.1000000              0.0018690
   3301.4900000              0.0142300
    754.1460000              0.0696960
    212.7110000              0.2384870
     67.9896000              0.4833070
     23.0515000              0.3380740
SP   6   1.00
    423.7350000             -0.0023767              0.0040610
    100.7100000             -0.0316930              0.0306810
     32.1599000             -0.1133170              0.1304520
     11.8079000              0.0560900              0.3272050
      4.6311000              0.5922550              0.4528510
      1.8702500              0.4550060              0.2560420
SP   3   1.00
      2.6158400             -0.2503740             -0.0145110
      0.9221670              0.0669570              0.3102630
      0.3412870              1.0545100              0.7544830
SP   1   1.00
      0.1171670              1.0000000              1.0000000
D    1   1.00
      1.3000000              1.0000000
D    1   1.00
      0.3250000              1.0000000
F    1   1.00
      0.5500000              1.0000000
****
Cl     0
S    6   1.00
  25180.1000000              0.0018330
   3780.3500000              0.0140340
    860.4740000              0.0690970
    242.1450000              0.2374520
     77.3349000              0.4830340
     26.2470000              0.3398560
SP   6   1.00
    491.7650000             -0.0022974              0.0039894
    116.9840000             -0.0307140              0.0303180
     37.4153000             -0.1125280              0.1298800
     13.7834000              0.0450160              0.3279510
      5.4521500              0.5893530              0.4535270
      2.2258800              0.4652060              0.2521540
SP   3   1.00
      3.1864900             -0.2518300             -0.0142990
      1.1442700              0.0615890              0.3235720
      0.4203770              1.0601800              0.7435070
SP   1   1.00
      0.1426570              1.0000000              1.0000000
D    1   1.00
      1.5000000              1.0000000
D    1   1.00
      0.3750000              1.0000000
F    1   1.00
      0.7000000              1.0000000
****
}

set {
reference uhf
freeze_core true
e_convergence 10
d_convergence 10
dft_spherical_points 1202
dft_radial_points 99
}

e = energy('b3lyp')

print_out('Grab this energy {0}'.format(e))
--------------------------------------------------------------------------

    Molecular point group: cs

    Geometry (in Bohr), charge = 0, multiplicity = 2:

       Center              X                  Y                   Z               Mass
    ------------   -----------------  -----------------  -----------------  -----------------
         C           -1.176799920768     0.192471679090     0.000000000000    12.000000000000
         H           -2.558761670768    -1.412683190910     0.000000000000     1.007825032230
         O            1.044105799232    -0.055387770910     0.000000000000    15.994914619570

  Charge       = 0
  Multiplicity = 2
  Basis Set: ANONYMOUSC0559B86
    Blend: 6-31G_2DFP_
  Basis Set: (ANONYMOUSC0559B86 AUX)
    Blend: DEF2-UNIVERSAL-JKFIT

    Orbital Energies [Eh]
    ---------------------

    Alpha Occupied:

       1Ap   -19.212316     2Ap   -10.285790     3Ap    -1.102814
       4Ap    -0.616270     5Ap    -0.496917     6Ap    -0.434418
       1App   -0.428607     7Ap    -0.215173

    Alpha Virtual:

       2App   -0.043711     8Ap     0.118716     9Ap     0.221359
      10Ap     0.465593     3App    0.500804    11Ap     0.521960
       4App    0.559150    12Ap     0.580365    13Ap     0.623935
      14Ap     0.687793     5App    0.775710    15Ap     0.783805
       6App    0.902926    16Ap     0.928007    17Ap     0.985340
       7App    1.019084    18Ap     1.193325    19Ap     1.338692
      20Ap     1.510244    21Ap     1.556854     8App    1.589157
      22Ap     1.818366     9App    1.919074    23Ap     2.085955
      24Ap     2.492240    10App    2.794471    25Ap     2.819232
      11App    2.906188    26Ap     2.974206    27Ap     3.103549
      12App    3.161201    13App    3.218306    28Ap     3.267999
      29Ap     3.344450    14App    3.414841    30Ap     3.645618
      31Ap     3.778801    15App    4.014677    32Ap     4.231763
      33Ap     4.795937    16App    5.013965    34Ap     5.033300
      17App    5.403169    35Ap     5.474038    36Ap     5.761531
      18App    5.883224    37Ap     5.985477    38Ap     6.735703
      19App    6.738040    20App    7.003837    39Ap     7.079371
      40Ap     7.498364

    Beta Occupied:

       1Ap   -19.203689     2Ap   -10.276067     3Ap    -1.086396
       4Ap    -0.588614     5Ap    -0.473515     1App   -0.420964
       6Ap    -0.381353

    Beta Virtual:

       7Ap    -0.070459     2App   -0.026967     8Ap     0.136914
       9Ap     0.228903    10Ap     0.499017     3App    0.510513
      11Ap     0.547014     4App    0.578215    12Ap     0.594732
      13Ap     0.652992    14Ap     0.713969     5App    0.788943
      15Ap     0.792499     6App    0.909099    16Ap     0.952603
      17Ap     0.999415     7App    1.030009    18Ap     1.215752
      19Ap     1.355237    20Ap     1.527603    21Ap     1.570304
       8App    1.606566    22Ap     1.844381     9App    1.924186
      23Ap     2.109652    24Ap     2.503752    10App    2.818991
      25Ap     2.847164    11App    2.926276    26Ap     3.007383
      27Ap     3.145507    12App    3.200195    13App    3.244759
      28Ap     3.282558    29Ap     3.374298    14App    3.425460
      30Ap     3.675459    31Ap     3.803424    15App    4.045368
      32Ap     4.268977    33Ap     4.826284    16App    5.033463
      34Ap     5.051770    17App    5.418998    35Ap     5.488743
      36Ap     5.775503    18App    5.888417    37Ap     6.009247
      38Ap     6.767083    19App    6.769958    20App    7.008284
      39Ap     7.110730    40Ap     7.510492

    Final Occupation by Irrep:
             Ap   App
    DOCC [     6,    1 ]
    SOCC [     1,    0 ]

  @DF-UKS Final Energy:  -113.85554197463198

   => Energetics <=

    Nuclear Repulsion Energy =             26.3900758995642128
    One-Electron Energy =                -206.9575577477540946
    Two-Electron Energy =                  78.2710488266582161
    DFT Exchange-Correlation Energy =     -11.5591089531003117
    Empirical Dispersion Energy =           0.0000000000000000
    VV10 Nonlocal Energy =                  0.0000000000000000
    Total Energy =                       -113.8555419746319757

  UHF NO Occupations:
  HONO-2 :    5 Ap 1.9995579
  HONO-1 :    6 Ap 1.9991790
  HONO-0 :    7 Ap 1.0000000
  LUNO+0 :    8 Ap 0.0008210
  LUNO+1 :    9 Ap 0.0004421
  LUNO+2 :    2App 0.0001638
  LUNO+3 :   10 Ap 0.0000702

Computation Completed

Properties will be evaluated at   0.000000,   0.000000,   0.000000 [a0]

Properties computed using the SCF density matrix

  Nuclear Dipole Moment: [e a0]
     X:    -1.2667      Y:    -0.7010      Z:     0.0000

  Electronic Dipole Moment: [e a0]
     X:     0.7324      Y:     0.4279      Z:     0.0000

  Dipole Moment: [e a0]
     X:    -0.5343      Y:    -0.2730      Z:     0.0000     Total:     0.6000

  Dipole Moment: [D]
     X:    -1.3581      Y:    -0.6939      Z:     0.0000     Total:     1.5251

*** tstop() called on n049 at Thu Nov  4 14:11:34 2021
Module time:
	user time   =      16.55 seconds =       0.28 minutes
	system time =       0.19 seconds =       0.00 minutes
	total time  =         17 seconds =       0.28 minutes
Total time:
	user time   =      16.55 seconds =       0.28 minutes
	system time =       0.19 seconds =       0.00 minutes
	total time  =         17 seconds =       0.28 minutes
Grab this energy -113.85554197463198
    Psi4 stopped on: Thursday, 04 November 2021 02:11PM
    Psi4 wall time for execution: 0:00:16.79

*** Psi4 exiting successfully. Buy a developer a beer!
