                               Psi4 1.4a2.dev629

  ==> Input File <==

--------------------------------------------------------------------------
import os
memory 14 GB

molecule {
 C   -1.1736749568    0.1978104572    0.0000000000
 H   -2.5525482121   -1.4138483660    0.0000000000
 O    1.0347673789   -0.0595613713    0.0000000000
units bohr
0 2
}

basis {

assign 6-31g_2dfp_

[ 6-31g_2dfp_ ]

spherical

!----------------------------------------------------------------------
! Basis Set Exchange
! Version v0.8.13
! https://www.basissetexchange.org
!----------------------------------------------------------------------
!   Basis set: 6-31G(2df,p)
! Description: 6-31G(2df,p)
!        Role: orbital
!     Version: 0  (Data from the original Basis Set Exchange)
!----------------------------------------------------------------------

****
H     0
S    3   1.00
     18.7311370              0.03349460
      2.8253937              0.23472695
      0.6401217              0.81375733
S    1   1.00
      0.1612778              1.00000000
P    1   1.00
      1.5000000              1.0000000
P    1   1.00
      0.3750000              1.0000000
****
B     0
S    6   1.00
   2068.8823000              0.0018663
    310.6495700              0.0142515
     70.6830330              0.0695516
     19.8610800              0.2325729
      6.2993048              0.4670787
      2.1270270              0.3634314
SP   3   1.00
      4.7279710             -0.1303938              0.0745976
      1.1903377             -0.1307889              0.3078467
      0.3594117              1.1309444              0.7434568
SP   1   1.00
      0.1267512              1.0000000              1.0000000
D    1   1.00
      0.8020000              1.0000000
D    1   1.00
      0.2005000              1.0000000
F    1   1.00
      0.5000000              1.0000000
****
C     0
S    6   1.00
   3047.5249000              0.0018347
    457.3695100              0.0140373
    103.9486900              0.0688426
     29.2101550              0.2321844
      9.2866630              0.4679413
      3.1639270              0.3623120
SP   3   1.00
      7.8682724             -0.1193324              0.0689991
      1.8812885             -0.1608542              0.3164240
      0.5442493              1.1434564              0.7443083
SP   1   1.00
      0.1687144              1.0000000              1.0000000
D    1   1.00
      1.2520000              1.0000000
D    1   1.00
      0.3130000              1.0000000
F    1   1.00
      0.8000000              1.0000000
****
N     0
S    6   1.00
   4173.5110000              0.0018348
    627.4579000              0.0139950
    142.9021000              0.0685870
     40.2343300              0.2322410
     12.8202100              0.4690700
      4.3904370              0.3604550
SP   3   1.00
     11.6263580             -0.1149610              0.0675800
      2.7162800             -0.1691180              0.3239070
      0.7722180              1.1458520              0.7408950
SP   1   1.00
      0.2120313              1.0000000              1.0000000
D    1   1.00
      1.8260000              1.0000000
D    1   1.00
      0.4565000              1.0000000
F    1   1.00
      1.0000000              1.0000000
****
O     0
S    6   1.00
   5484.6717000              0.0018311
    825.2349500              0.0139501
    188.0469600              0.0684451
     52.9645000              0.2327143
     16.8975700              0.4701930
      5.7996353              0.3585209
SP   3   1.00
     15.5396160             -0.1107775              0.0708743
      3.5999336             -0.1480263              0.3397528
      1.0137618              1.1307670              0.7271586
SP   1   1.00
      0.2700058              1.0000000              1.0000000
D    1   1.00
      2.5840000              1.0000000
D    1   1.00
      0.6460000              1.0000000
F    1   1.00
      1.4000000              1.0000000
****
F     0
S    6   1.00
   7001.7130900              0.0018196169
   1051.3660900              0.0139160796
    239.2856900              0.0684053245
     67.3974453              0.233185760
     21.5199573              0.471267439
      7.40310130             0.356618546
SP   3   1.00
     20.8479528             -0.108506975            0.0716287243
      4.80830834            -0.146451658            0.3459121030
      1.34406986             1.128688580            0.7224699570
SP   1   1.00
      0.358151393            1.0000000              1.0000000
D    1   1.00
      3.5000000              1.0000000
D    1   1.00
      0.8750000              1.0000000
F    1   1.00
      1.8500000              1.0000000
****
Al     0
S    6   1.00
  13983.1000000              0.00194267
   2098.7500000              0.0148599
    477.7050000              0.0728494
    134.3600000              0.2468300
     42.8709000              0.4872580
     14.5189000              0.3234960
SP   6   1.00
    239.6680000             -0.00292619             0.00460285
     57.4419000             -0.0374080              0.0331990
     18.2859000             -0.1144870              0.1362820
      6.5991400              0.1156350              0.3304760
      2.4904900              0.6125950              0.4491460
      0.9445400              0.3937990              0.2657040
SP   3   1.00
      1.2779000             -0.2276060             -0.0175130
      0.3975900              0.00144583             0.2445330
      0.1600950              1.0927900              0.8049340
SP   1   1.00
      0.0556577              1.0000000              1.0000000
D    1   1.00
      0.6500000              1.0000000
D    1   1.00
      0.1625000              1.0000000
F    1   1.00
      0.2500000              1.0000000
****
Si     0
S    6   1.00
  16115.9000000              0.00195948
   2425.5800000              0.01492880
    553.8670000              0.07284780
    156.3400000              0.24613000
     50.0683000              0.48591400
     17.0178000              0.32500200
SP   6   1.00
    292.7180000             -0.00278094             0.00443826
     69.8731000             -0.03571460             0.03266790
     22.3363000             -0.11498500             0.13472100
      8.1503900              0.09356340             0.32867800
      3.1345800              0.60301700             0.44964000
      1.2254300              0.41895900             0.26137200
SP   3   1.00
      1.7273800             -0.24463000            -0.01779510
      0.5729220              0.00431572             0.25353900
      0.2221920              1.09818000             0.80066900
SP   1   1.00
      0.0778369              1.00000000             1.00000000
D    1   1.00
      0.9000000              1.0000000
D    1   1.00
      0.2250000              1.0000000
F    1   1.00
      0.3200000              1.0000000
****
P     0
S    6   1.00
  19413.3000000              0.0018516
   2909.4200000              0.0142062
    661.3640000              0.0699995
    185.7590000              0.2400790
     59.1943000              0.4847620
     20.0310000              0.3352000
SP   6   1.00
    339.4780000             -0.00278217             0.00456462
     81.0101000             -0.0360499              0.03369360
     25.8780000             -0.1166310              0.13975500
      9.4522100              0.0968328              0.33936200
      3.6656600              0.6144180              0.45092100
      1.4674600              0.4037980              0.23858600
SP   3   1.00
      2.1562300             -0.2529230             -0.01776530
      0.7489970              0.0328517              0.27405800
      0.2831450              1.0812500              0.78542100
SP   1   1.00
      0.0998317              1.0000000              1.00000000
D    1   1.00
      1.1000000              1.0000000
D    1   1.00
      0.2750000              1.0000000
F    1   1.00
      0.4500000              1.0000000
****
S     0
S    6   1.00
  21917.1000000              0.0018690
   3301.4900000              0.0142300
    754.1460000              0.0696960
    212.7110000              0.2384870
     67.9896000              0.4833070
     23.0515000              0.3380740
SP   6   1.00
    423.7350000             -0.0023767              0.0040610
    100.7100000             -0.0316930              0.0306810
     32.1599000             -0.1133170              0.1304520
     11.8079000              0.0560900              0.3272050
      4.6311000              0.5922550              0.4528510
      1.8702500              0.4550060              0.2560420
SP   3   1.00
      2.6158400             -0.2503740             -0.0145110
      0.9221670              0.0669570              0.3102630
      0.3412870              1.0545100              0.7544830
SP   1   1.00
      0.1171670              1.0000000              1.0000000
D    1   1.00
      1.3000000              1.0000000
D    1   1.00
      0.3250000              1.0000000
F    1   1.00
      0.5500000              1.0000000
****
Cl     0
S    6   1.00
  25180.1000000              0.0018330
   3780.3500000              0.0140340
    860.4740000              0.0690970
    242.1450000              0.2374520
     77.3349000              0.4830340
     26.2470000              0.3398560
SP   6   1.00
    491.7650000             -0.0022974              0.0039894
    116.9840000             -0.0307140              0.0303180
     37.4153000             -0.1125280              0.1298800
     13.7834000              0.0450160              0.3279510
      5.4521500              0.5893530              0.4535270
      2.2258800              0.4652060              0.2521540
SP   3   1.00
      3.1864900             -0.2518300             -0.0142990
      1.1442700              0.0615890              0.3235720
      0.4203770              1.0601800              0.7435070
SP   1   1.00
      0.1426570              1.0000000              1.0000000
D    1   1.00
      1.5000000              1.0000000
D    1   1.00
      0.3750000              1.0000000
F    1   1.00
      0.7000000              1.0000000
****
}

set {
reference uhf
freeze_core true
e_convergence 10
d_convergence 10
dft_spherical_points 1202
dft_radial_points 99
}

e = energy('b3lyp')

print_out('Grab this energy {0}'.format(e))
--------------------------------------------------------------------------

    Molecular point group: cs

    Geometry (in Bohr), charge = 0, multiplicity = 2:

       Center              X                  Y                   Z               Mass
    ------------   -----------------  -----------------  -----------------  -----------------
         C           -1.170033728751     0.197943732099     0.000000000000    12.000000000000
         H           -2.548906984051    -1.413715091101     0.000000000000     1.007825032230
         O            1.038408606949    -0.059428096401     0.000000000000    15.994914619570

  Charge       = 0
  Multiplicity = 2
  Basis Set: ANONYMOUS4F728917
    Blend: 6-31G_2DFP_
  Basis Set: (ANONYMOUS4F728917 AUX)
    Blend: DEF2-UNIVERSAL-JKFIT

    Orbital Energies [Eh]
    ---------------------

    Alpha Occupied:

       1Ap   -19.212211     2Ap   -10.284671     3Ap    -1.106250
       4Ap    -0.615109     5Ap    -0.498001     6Ap    -0.435598
       1App   -0.430718     7Ap    -0.214404

    Alpha Virtual:

       2App   -0.041790     8Ap     0.119329     9Ap     0.222267
      10Ap     0.465985     3App    0.500426    11Ap     0.521285
       4App    0.558696    12Ap     0.584443    13Ap     0.624193
      14Ap     0.689107     5App    0.778631    15Ap     0.784830
       6App    0.901529    16Ap     0.927349    17Ap     0.988135
       7App    1.018426    18Ap     1.193482    19Ap     1.339893
      20Ap     1.509938    21Ap     1.556812     8App    1.590380
      22Ap     1.821464     9App    1.921688    23Ap     2.084212
      24Ap     2.502087    10App    2.795427    25Ap     2.821609
      11App    2.908901    26Ap     2.972082    27Ap     3.104332
      12App    3.159927    13App    3.218186    28Ap     3.273569
      29Ap     3.349473    14App    3.418584    30Ap     3.652345
      31Ap     3.789691    15App    4.013666    32Ap     4.226217
      33Ap     4.794327    16App    5.014295    34Ap     5.035132
      17App    5.410230    35Ap     5.480874    36Ap     5.758315
      18App    5.892876    37Ap     5.994480    38Ap     6.736388
      19App    6.738563    20App    7.001920    39Ap     7.078022
      40Ap     7.502390

    Beta Occupied:

       1Ap   -19.203587     2Ap   -10.275015     3Ap    -1.089933
       4Ap    -0.587522     5Ap    -0.474331     1App   -0.423067
       6Ap    -0.382739

    Beta Virtual:

       7Ap    -0.069919     2App   -0.025079     8Ap     0.137805
       9Ap     0.229624    10Ap     0.499796     3App    0.510082
      11Ap     0.546160     4App    0.577799    12Ap     0.598566
      13Ap     0.653142    14Ap     0.715528     5App    0.791877
      15Ap     0.793362     6App    0.907752    16Ap     0.952303
      17Ap     1.002097     7App    1.029482    18Ap     1.216191
      19Ap     1.356285    20Ap     1.527686    21Ap     1.570093
       8App    1.607885    22Ap     1.847844     9App    1.926755
      23Ap     2.107847    24Ap     2.513609    10App    2.819579
      25Ap     2.849168    11App    2.929134    26Ap     3.005342
      27Ap     3.146151    12App    3.198568    13App    3.244627
      28Ap     3.288309    29Ap     3.379372    14App    3.429193
      30Ap     3.682292    31Ap     3.813816    15App    4.044901
      32Ap     4.263937    33Ap     4.824973    16App    5.033821
      34Ap     5.053683    17App    5.426061    35Ap     5.495428
      36Ap     5.772368    18App    5.898081    37Ap     6.018204
      38Ap     6.767791    19App    6.770511    20App    7.006354
      39Ap     7.109334    40Ap     7.514497

    Final Occupation by Irrep:
             Ap   App
    DOCC [     6,    1 ]
    SOCC [     1,    0 ]

  @DF-UKS Final Energy:  -113.85558795077408

   => Energetics <=

    Nuclear Repulsion Energy =             26.5038457281284074
    One-Electron Energy =                -207.1722472411214824
    Two-Electron Energy =                  78.3758659323771951
    DFT Exchange-Correlation Energy =     -11.5630523701581911
    Empirical Dispersion Energy =           0.0000000000000000
    VV10 Nonlocal Energy =                  0.0000000000000000
    Total Energy =                       -113.8555879507740798

  UHF NO Occupations:
  HONO-2 :    5 Ap 1.9995411
  HONO-1 :    6 Ap 1.9991866
  HONO-0 :    7 Ap 1.0000000
  LUNO+0 :    8 Ap 0.0008134
  LUNO+1 :    9 Ap 0.0004589
  LUNO+2 :    2App 0.0001581
  LUNO+3 :   10 Ap 0.0000697

Computation Completed

Properties will be evaluated at   0.000000,   0.000000,   0.000000 [a0]

Properties computed using the SCF density matrix

  Nuclear Dipole Moment: [e a0]
     X:    -1.2618      Y:    -0.7015      Z:     0.0000

  Electronic Dipole Moment: [e a0]
     X:     0.7390      Y:     0.4321      Z:     0.0000

  Dipole Moment: [e a0]
     X:    -0.5229      Y:    -0.2694      Z:     0.0000     Total:     0.5882

  Dipole Moment: [D]
     X:    -1.3290      Y:    -0.6846      Z:     0.0000     Total:     1.4950

*** tstop() called on n059 at Thu Nov  4 14:11:38 2021
Module time:
	user time   =      16.80 seconds =       0.28 minutes
	system time =       0.19 seconds =       0.00 minutes
	total time  =         17 seconds =       0.28 minutes
Total time:
	user time   =      16.80 seconds =       0.28 minutes
	system time =       0.19 seconds =       0.00 minutes
	total time  =         17 seconds =       0.28 minutes
Grab this energy -113.85558795077408
    Psi4 stopped on: Thursday, 04 November 2021 02:11PM
    Psi4 wall time for execution: 0:00:17.03

*** Psi4 exiting successfully. Buy a developer a beer!
