                               Psi4 1.4a2.dev629

  ==> Input File <==

--------------------------------------------------------------------------
import os
memory 14 GB

molecule {
 C   -1.1722400399    0.1942029613    0.0000000000
 H   -2.5605699529   -1.4147453242    0.0000000000
 O    1.0413542028   -0.0550569172    0.0000000000
units bohr
0 2
}

basis {

assign 6-31g_2dfp_

[ 6-31g_2dfp_ ]

spherical

!----------------------------------------------------------------------
! Basis Set Exchange
! Version v0.8.13
! https://www.basissetexchange.org
!----------------------------------------------------------------------
!   Basis set: 6-31G(2df,p)
! Description: 6-31G(2df,p)
!        Role: orbital
!     Version: 0  (Data from the original Basis Set Exchange)
!----------------------------------------------------------------------

****
H     0
S    3   1.00
     18.7311370              0.03349460
      2.8253937              0.23472695
      0.6401217              0.81375733
S    1   1.00
      0.1612778              1.00000000
P    1   1.00
      1.5000000              1.0000000
P    1   1.00
      0.3750000              1.0000000
****
B     0
S    6   1.00
   2068.8823000              0.0018663
    310.6495700              0.0142515
     70.6830330              0.0695516
     19.8610800              0.2325729
      6.2993048              0.4670787
      2.1270270              0.3634314
SP   3   1.00
      4.7279710             -0.1303938              0.0745976
      1.1903377             -0.1307889              0.3078467
      0.3594117              1.1309444              0.7434568
SP   1   1.00
      0.1267512              1.0000000              1.0000000
D    1   1.00
      0.8020000              1.0000000
D    1   1.00
      0.2005000              1.0000000
F    1   1.00
      0.5000000              1.0000000
****
C     0
S    6   1.00
   3047.5249000              0.0018347
    457.3695100              0.0140373
    103.9486900              0.0688426
     29.2101550              0.2321844
      9.2866630              0.4679413
      3.1639270              0.3623120
SP   3   1.00
      7.8682724             -0.1193324              0.0689991
      1.8812885             -0.1608542              0.3164240
      0.5442493              1.1434564              0.7443083
SP   1   1.00
      0.1687144              1.0000000              1.0000000
D    1   1.00
      1.2520000              1.0000000
D    1   1.00
      0.3130000              1.0000000
F    1   1.00
      0.8000000              1.0000000
****
N     0
S    6   1.00
   4173.5110000              0.0018348
    627.4579000              0.0139950
    142.9021000              0.0685870
     40.2343300              0.2322410
     12.8202100              0.4690700
      4.3904370              0.3604550
SP   3   1.00
     11.6263580             -0.1149610              0.0675800
      2.7162800             -0.1691180              0.3239070
      0.7722180              1.1458520              0.7408950
SP   1   1.00
      0.2120313              1.0000000              1.0000000
D    1   1.00
      1.8260000              1.0000000
D    1   1.00
      0.4565000              1.0000000
F    1   1.00
      1.0000000              1.0000000
****
O     0
S    6   1.00
   5484.6717000              0.0018311
    825.2349500              0.0139501
    188.0469600              0.0684451
     52.9645000              0.2327143
     16.8975700              0.4701930
      5.7996353              0.3585209
SP   3   1.00
     15.5396160             -0.1107775              0.0708743
      3.5999336             -0.1480263              0.3397528
      1.0137618              1.1307670              0.7271586
SP   1   1.00
      0.2700058              1.0000000              1.0000000
D    1   1.00
      2.5840000              1.0000000
D    1   1.00
      0.6460000              1.0000000
F    1   1.00
      1.4000000              1.0000000
****
F     0
S    6   1.00
   7001.7130900              0.0018196169
   1051.3660900              0.0139160796
    239.2856900              0.0684053245
     67.3974453              0.233185760
     21.5199573              0.471267439
      7.40310130             0.356618546
SP   3   1.00
     20.8479528             -0.108506975            0.0716287243
      4.80830834            -0.146451658            0.3459121030
      1.34406986             1.128688580            0.7224699570
SP   1   1.00
      0.358151393            1.0000000              1.0000000
D    1   1.00
      3.5000000              1.0000000
D    1   1.00
      0.8750000              1.0000000
F    1   1.00
      1.8500000              1.0000000
****
Al     0
S    6   1.00
  13983.1000000              0.00194267
   2098.7500000              0.0148599
    477.7050000              0.0728494
    134.3600000              0.2468300
     42.8709000              0.4872580
     14.5189000              0.3234960
SP   6   1.00
    239.6680000             -0.00292619             0.00460285
     57.4419000             -0.0374080              0.0331990
     18.2859000             -0.1144870              0.1362820
      6.5991400              0.1156350              0.3304760
      2.4904900              0.6125950              0.4491460
      0.9445400              0.3937990              0.2657040
SP   3   1.00
      1.2779000             -0.2276060             -0.0175130
      0.3975900              0.00144583             0.2445330
      0.1600950              1.0927900              0.8049340
SP   1   1.00
      0.0556577              1.0000000              1.0000000
D    1   1.00
      0.6500000              1.0000000
D    1   1.00
      0.1625000              1.0000000
F    1   1.00
      0.2500000              1.0000000
****
Si     0
S    6   1.00
  16115.9000000              0.00195948
   2425.5800000              0.01492880
    553.8670000              0.07284780
    156.3400000              0.24613000
     50.0683000              0.48591400
     17.0178000              0.32500200
SP   6   1.00
    292.7180000             -0.00278094             0.00443826
     69.8731000             -0.03571460             0.03266790
     22.3363000             -0.11498500             0.13472100
      8.1503900              0.09356340             0.32867800
      3.1345800              0.60301700             0.44964000
      1.2254300              0.41895900             0.26137200
SP   3   1.00
      1.7273800             -0.24463000            -0.01779510
      0.5729220              0.00431572             0.25353900
      0.2221920              1.09818000             0.80066900
SP   1   1.00
      0.0778369              1.00000000             1.00000000
D    1   1.00
      0.9000000              1.0000000
D    1   1.00
      0.2250000              1.0000000
F    1   1.00
      0.3200000              1.0000000
****
P     0
S    6   1.00
  19413.3000000              0.0018516
   2909.4200000              0.0142062
    661.3640000              0.0699995
    185.7590000              0.2400790
     59.1943000              0.4847620
     20.0310000              0.3352000
SP   6   1.00
    339.4780000             -0.00278217             0.00456462
     81.0101000             -0.0360499              0.03369360
     25.8780000             -0.1166310              0.13975500
      9.4522100              0.0968328              0.33936200
      3.6656600              0.6144180              0.45092100
      1.4674600              0.4037980              0.23858600
SP   3   1.00
      2.1562300             -0.2529230             -0.01776530
      0.7489970              0.0328517              0.27405800
      0.2831450              1.0812500              0.78542100
SP   1   1.00
      0.0998317              1.0000000              1.00000000
D    1   1.00
      1.1000000              1.0000000
D    1   1.00
      0.2750000              1.0000000
F    1   1.00
      0.4500000              1.0000000
****
S     0
S    6   1.00
  21917.1000000              0.0018690
   3301.4900000              0.0142300
    754.1460000              0.0696960
    212.7110000              0.2384870
     67.9896000              0.4833070
     23.0515000              0.3380740
SP   6   1.00
    423.7350000             -0.0023767              0.0040610
    100.7100000             -0.0316930              0.0306810
     32.1599000             -0.1133170              0.1304520
     11.8079000              0.0560900              0.3272050
      4.6311000              0.5922550              0.4528510
      1.8702500              0.4550060              0.2560420
SP   3   1.00
      2.6158400             -0.2503740             -0.0145110
      0.9221670              0.0669570              0.3102630
      0.3412870              1.0545100              0.7544830
SP   1   1.00
      0.1171670              1.0000000              1.0000000
D    1   1.00
      1.3000000              1.0000000
D    1   1.00
      0.3250000              1.0000000
F    1   1.00
      0.5500000              1.0000000
****
Cl     0
S    6   1.00
  25180.1000000              0.0018330
   3780.3500000              0.0140340
    860.4740000              0.0690970
    242.1450000              0.2374520
     77.3349000              0.4830340
     26.2470000              0.3398560
SP   6   1.00
    491.7650000             -0.0022974              0.0039894
    116.9840000             -0.0307140              0.0303180
     37.4153000             -0.1125280              0.1298800
     13.7834000              0.0450160              0.3279510
      5.4521500              0.5893530              0.4535270
      2.2258800              0.4652060              0.2521540
SP   3   1.00
      3.1864900             -0.2518300             -0.0142990
      1.1442700              0.0615890              0.3235720
      0.4203770              1.0601800              0.7435070
SP   1   1.00
      0.1426570              1.0000000              1.0000000
D    1   1.00
      1.5000000              1.0000000
D    1   1.00
      0.3750000              1.0000000
F    1   1.00
      0.7000000              1.0000000
****
}

set {
reference uhf
freeze_core true
e_convergence 10
d_convergence 10
dft_spherical_points 1202
dft_radial_points 99
}

e = energy('b3lyp')

print_out('Grab this energy {0}'.format(e))
--------------------------------------------------------------------------

    Molecular point group: cs

    Geometry (in Bohr), charge = 0, multiplicity = 2:

       Center              X                  Y                   Z               Mass
    ------------   -----------------  -----------------  -----------------  -----------------
         C           -1.172546376078     0.193375829308     0.000000000000    12.000000000000
         H           -2.560876289078    -1.415572456192     0.000000000000     1.007825032230
         O            1.041047866622    -0.055884049192     0.000000000000    15.994914619570

  Charge       = 0
  Multiplicity = 2
  Basis Set: ANONYMOUSB641F3AC
    Blend: 6-31G_2DFP_
  Basis Set: (ANONYMOUSB641F3AC AUX)
    Blend: DEF2-UNIVERSAL-JKFIT

    Orbital Energies [Eh]
    ---------------------

    Alpha Occupied:

       1Ap   -19.212313     2Ap   -10.285392     3Ap    -1.104957
       4Ap    -0.615081     5Ap    -0.497482     6Ap    -0.435279
       1App   -0.429944     7Ap    -0.214426

    Alpha Virtual:

       2App   -0.042540     8Ap     0.118388     9Ap     0.221814
      10Ap     0.465236     3App    0.500394    11Ap     0.521990
       4App    0.558940    12Ap     0.582681    13Ap     0.623459
      14Ap     0.688606     5App    0.776590    15Ap     0.784258
       6App    0.901889    16Ap     0.927446    17Ap     0.984926
       7App    1.018781    18Ap     1.192378    19Ap     1.340046
      20Ap     1.508882    21Ap     1.557125     8App    1.589746
      22Ap     1.818239     9App    1.921027    23Ap     2.086739
      24Ap     2.498150    10App    2.794576    25Ap     2.819630
      11App    2.907972    26Ap     2.973151    27Ap     3.104099
      12App    3.160434    13App    3.217871    28Ap     3.269178
      29Ap     3.346833    14App    3.417328    30Ap     3.650169
      31Ap     3.782972    15App    4.010224    32Ap     4.226392
      33Ap     4.789770    16App    5.014015    34Ap     5.033437
      17App    5.407846    35Ap     5.479504    36Ap     5.760195
      18App    5.889209    37Ap     5.989004    38Ap     6.736026
      19App    6.738336    20App    7.002690    39Ap     7.078516
      40Ap     7.500986

    Beta Occupied:

       1Ap   -19.203723     2Ap   -10.275707     3Ap    -1.088661
       4Ap    -0.587468     5Ap    -0.473991     1App   -0.422322
       6Ap    -0.382443

    Beta Virtual:

       7Ap    -0.069920     2App   -0.025825     8Ap     0.136886
       9Ap     0.229271    10Ap     0.498791     3App    0.510121
      11Ap     0.546982     4App    0.578036    12Ap     0.597006
      13Ap     0.652440    14Ap     0.714984     5App    0.789854
      15Ap     0.792872     6App    0.908086    16Ap     0.952029
      17Ap     0.999099     7App    1.029798    18Ap     1.214971
      19Ap     1.356440    20Ap     1.526624    21Ap     1.570381
       8App    1.607119    22Ap     1.844387     9App    1.926127
      23Ap     2.110384    24Ap     2.509676    10App    2.818953
      25Ap     2.847419    11App    2.928056    26Ap     3.006323
      27Ap     3.146145    12App    3.199264    13App    3.244395
      28Ap     3.283824    29Ap     3.376582    14App    3.427814
      30Ap     3.680056    31Ap     3.807329    15App    4.041372
      32Ap     4.263949    33Ap     4.820309    16App    5.033436
      34Ap     5.051869    17App    5.423616    35Ap     5.494048
      36Ap     5.774210    18App    5.894402    37Ap     6.012680
      38Ap     6.767274    19App    6.770116    20App    7.007114
      39Ap     7.109729    40Ap     7.513059

    Final Occupation by Irrep:
             Ap   App
    DOCC [     6,    1 ]
    SOCC [     1,    0 ]

  @DF-UKS Final Energy:  -113.85559919237723

   => Energetics <=

    Nuclear Repulsion Energy =             26.4492820663184034
    One-Electron Energy =                -207.0686799035935621
    Two-Electron Energy =                  78.3245634480313839
    DFT Exchange-Correlation Energy =     -11.5607648031334485
    Empirical Dispersion Energy =           0.0000000000000000
    VV10 Nonlocal Energy =                  0.0000000000000000
    Total Energy =                       -113.8555991923772268

  UHF NO Occupations:
  HONO-2 :    5 Ap 1.9995415
  HONO-1 :    6 Ap 1.9991866
  HONO-0 :    7 Ap 1.0000000
  LUNO+0 :    8 Ap 0.0008134
  LUNO+1 :    9 Ap 0.0004585
  LUNO+2 :    2App 0.0001617
  LUNO+3 :   10 Ap 0.0000695

Computation Completed

Properties will be evaluated at   0.000000,   0.000000,   0.000000 [a0]

Properties computed using the SCF density matrix

  Nuclear Dipole Moment: [e a0]
     X:    -1.2678      Y:    -0.7024      Z:     0.0000

  Electronic Dipole Moment: [e a0]
     X:     0.7402      Y:     0.4321      Z:     0.0000

  Dipole Moment: [e a0]
     X:    -0.5276      Y:    -0.2703      Z:     0.0000     Total:     0.5928

  Dipole Moment: [D]
     X:    -1.3410      Y:    -0.6871      Z:     0.0000     Total:     1.5068

*** tstop() called on n070 at Thu Nov  4 14:11:43 2021
Module time:
	user time   =      17.20 seconds =       0.29 minutes
	system time =       0.28 seconds =       0.00 minutes
	total time  =         18 seconds =       0.30 minutes
Total time:
	user time   =      17.20 seconds =       0.29 minutes
	system time =       0.28 seconds =       0.00 minutes
	total time  =         18 seconds =       0.30 minutes
Grab this energy -113.85559919237723
    Psi4 stopped on: Thursday, 04 November 2021 02:11PM
    Psi4 wall time for execution: 0:00:17.56

*** Psi4 exiting successfully. Buy a developer a beer!
