                               Psi4 1.4a2.dev629

  ==> Input File <==

--------------------------------------------------------------------------
import os
memory 14 GB

molecule {
 C   -1.3796214268    0.0203249605    0.0549644300
 O    1.2081083240   -0.1148802969   -0.0049380557
 H    1.8731085486    1.5695029485    0.1601809027
 H   -2.2760141925    1.7794134202   -0.4702601041
 H   -2.3059298083   -1.7659805702   -0.2879517276
units bohr
0 2
}

basis {

assign 6-31g_2dfp_

[ 6-31g_2dfp_ ]

spherical

!----------------------------------------------------------------------
! Basis Set Exchange
! Version v0.8.13
! https://www.basissetexchange.org
!----------------------------------------------------------------------
!   Basis set: 6-31G(2df,p)
! Description: 6-31G(2df,p)
!        Role: orbital
!     Version: 0  (Data from the original Basis Set Exchange)
!----------------------------------------------------------------------

****
H     0
S    3   1.00
     18.7311370              0.03349460
      2.8253937              0.23472695
      0.6401217              0.81375733
S    1   1.00
      0.1612778              1.00000000
P    1   1.00
      1.5000000              1.0000000
P    1   1.00
      0.3750000              1.0000000
****
B     0
S    6   1.00
   2068.8823000              0.0018663
    310.6495700              0.0142515
     70.6830330              0.0695516
     19.8610800              0.2325729
      6.2993048              0.4670787
      2.1270270              0.3634314
SP   3   1.00
      4.7279710             -0.1303938              0.0745976
      1.1903377             -0.1307889              0.3078467
      0.3594117              1.1309444              0.7434568
SP   1   1.00
      0.1267512              1.0000000              1.0000000
D    1   1.00
      0.8020000              1.0000000
D    1   1.00
      0.2005000              1.0000000
F    1   1.00
      0.5000000              1.0000000
****
C     0
S    6   1.00
   3047.5249000              0.0018347
    457.3695100              0.0140373
    103.9486900              0.0688426
     29.2101550              0.2321844
      9.2866630              0.4679413
      3.1639270              0.3623120
SP   3   1.00
      7.8682724             -0.1193324              0.0689991
      1.8812885             -0.1608542              0.3164240
      0.5442493              1.1434564              0.7443083
SP   1   1.00
      0.1687144              1.0000000              1.0000000
D    1   1.00
      1.2520000              1.0000000
D    1   1.00
      0.3130000              1.0000000
F    1   1.00
      0.8000000              1.0000000
****
N     0
S    6   1.00
   4173.5110000              0.0018348
    627.4579000              0.0139950
    142.9021000              0.0685870
     40.2343300              0.2322410
     12.8202100              0.4690700
      4.3904370              0.3604550
SP   3   1.00
     11.6263580             -0.1149610              0.0675800
      2.7162800             -0.1691180              0.3239070
      0.7722180              1.1458520              0.7408950
SP   1   1.00
      0.2120313              1.0000000              1.0000000
D    1   1.00
      1.8260000              1.0000000
D    1   1.00
      0.4565000              1.0000000
F    1   1.00
      1.0000000              1.0000000
****
O     0
S    6   1.00
   5484.6717000              0.0018311
    825.2349500              0.0139501
    188.0469600              0.0684451
     52.9645000              0.2327143
     16.8975700              0.4701930
      5.7996353              0.3585209
SP   3   1.00
     15.5396160             -0.1107775              0.0708743
      3.5999336             -0.1480263              0.3397528
      1.0137618              1.1307670              0.7271586
SP   1   1.00
      0.2700058              1.0000000              1.0000000
D    1   1.00
      2.5840000              1.0000000
D    1   1.00
      0.6460000              1.0000000
F    1   1.00
      1.4000000              1.0000000
****
F     0
S    6   1.00
   7001.7130900              0.0018196169
   1051.3660900              0.0139160796
    239.2856900              0.0684053245
     67.3974453              0.233185760
     21.5199573              0.471267439
      7.40310130             0.356618546
SP   3   1.00
     20.8479528             -0.108506975            0.0716287243
      4.80830834            -0.146451658            0.3459121030
      1.34406986             1.128688580            0.7224699570
SP   1   1.00
      0.358151393            1.0000000              1.0000000
D    1   1.00
      3.5000000              1.0000000
D    1   1.00
      0.8750000              1.0000000
F    1   1.00
      1.8500000              1.0000000
****
Al     0
S    6   1.00
  13983.1000000              0.00194267
   2098.7500000              0.0148599
    477.7050000              0.0728494
    134.3600000              0.2468300
     42.8709000              0.4872580
     14.5189000              0.3234960
SP   6   1.00
    239.6680000             -0.00292619             0.00460285
     57.4419000             -0.0374080              0.0331990
     18.2859000             -0.1144870              0.1362820
      6.5991400              0.1156350              0.3304760
      2.4904900              0.6125950              0.4491460
      0.9445400              0.3937990              0.2657040
SP   3   1.00
      1.2779000             -0.2276060             -0.0175130
      0.3975900              0.00144583             0.2445330
      0.1600950              1.0927900              0.8049340
SP   1   1.00
      0.0556577              1.0000000              1.0000000
D    1   1.00
      0.6500000              1.0000000
D    1   1.00
      0.1625000              1.0000000
F    1   1.00
      0.2500000              1.0000000
****
Si     0
S    6   1.00
  16115.9000000              0.00195948
   2425.5800000              0.01492880
    553.8670000              0.07284780
    156.3400000              0.24613000
     50.0683000              0.48591400
     17.0178000              0.32500200
SP   6   1.00
    292.7180000             -0.00278094             0.00443826
     69.8731000             -0.03571460             0.03266790
     22.3363000             -0.11498500             0.13472100
      8.1503900              0.09356340             0.32867800
      3.1345800              0.60301700             0.44964000
      1.2254300              0.41895900             0.26137200
SP   3   1.00
      1.7273800             -0.24463000            -0.01779510
      0.5729220              0.00431572             0.25353900
      0.2221920              1.09818000             0.80066900
SP   1   1.00
      0.0778369              1.00000000             1.00000000
D    1   1.00
      0.9000000              1.0000000
D    1   1.00
      0.2250000              1.0000000
F    1   1.00
      0.3200000              1.0000000
****
P     0
S    6   1.00
  19413.3000000              0.0018516
   2909.4200000              0.0142062
    661.3640000              0.0699995
    185.7590000              0.2400790
     59.1943000              0.4847620
     20.0310000              0.3352000
SP   6   1.00
    339.4780000             -0.00278217             0.00456462
     81.0101000             -0.0360499              0.03369360
     25.8780000             -0.1166310              0.13975500
      9.4522100              0.0968328              0.33936200
      3.6656600              0.6144180              0.45092100
      1.4674600              0.4037980              0.23858600
SP   3   1.00
      2.1562300             -0.2529230             -0.01776530
      0.7489970              0.0328517              0.27405800
      0.2831450              1.0812500              0.78542100
SP   1   1.00
      0.0998317              1.0000000              1.00000000
D    1   1.00
      1.1000000              1.0000000
D    1   1.00
      0.2750000              1.0000000
F    1   1.00
      0.4500000              1.0000000
****
S     0
S    6   1.00
  21917.1000000              0.0018690
   3301.4900000              0.0142300
    754.1460000              0.0696960
    212.7110000              0.2384870
     67.9896000              0.4833070
     23.0515000              0.3380740
SP   6   1.00
    423.7350000             -0.0023767              0.0040610
    100.7100000             -0.0316930              0.0306810
     32.1599000             -0.1133170              0.1304520
     11.8079000              0.0560900              0.3272050
      4.6311000              0.5922550              0.4528510
      1.8702500              0.4550060              0.2560420
SP   3   1.00
      2.6158400             -0.2503740             -0.0145110
      0.9221670              0.0669570              0.3102630
      0.3412870              1.0545100              0.7544830
SP   1   1.00
      0.1171670              1.0000000              1.0000000
D    1   1.00
      1.3000000              1.0000000
D    1   1.00
      0.3250000              1.0000000
F    1   1.00
      0.5500000              1.0000000
****
Cl     0
S    6   1.00
  25180.1000000              0.0018330
   3780.3500000              0.0140340
    860.4740000              0.0690970
    242.1450000              0.2374520
     77.3349000              0.4830340
     26.2470000              0.3398560
SP   6   1.00
    491.7650000             -0.0022974              0.0039894
    116.9840000             -0.0307140              0.0303180
     37.4153000             -0.1125280              0.1298800
     13.7834000              0.0450160              0.3279510
      5.4521500              0.5893530              0.4535270
      2.2258800              0.4652060              0.2521540
SP   3   1.00
      3.1864900             -0.2518300             -0.0142990
      1.1442700              0.0615890              0.3235720
      0.4203770              1.0601800              0.7435070
SP   1   1.00
      0.1426570              1.0000000              1.0000000
D    1   1.00
      1.5000000              1.0000000
D    1   1.00
      0.3750000              1.0000000
F    1   1.00
      0.7000000              1.0000000
****
}

set {
reference uhf
freeze_core true
e_convergence 10
d_convergence 10
dft_spherical_points 1202
dft_radial_points 99
}

e = energy('b3lyp')

print_out('Grab this energy {0}'.format(e))
--------------------------------------------------------------------------

    Molecular point group: c1

    Geometry (in Bohr), charge = 0, multiplicity = 2:

       Center              X                  Y                   Z               Mass
    ------------   -----------------  -----------------  -----------------  -----------------
         C           -1.380849736696     0.020269467363     0.055677592734    12.000000000000
         O            1.206880014104    -0.114935790037    -0.004224892966    15.994914619570
         H            1.871880238704     1.569447455363     0.160894065434     1.007825032230
         H           -2.277242502396     1.779357927063    -0.469546941366     1.007825032230
         H           -2.307158118196    -1.766036063337    -0.287238564866     1.007825032230

  Charge       = 0
  Multiplicity = 2
  Basis Set: ANONYMOUS3EB76DBD
    Blend: 6-31G_2DFP_
  Basis Set: (ANONYMOUS3EB76DBD AUX)
    Blend: DEF2-UNIVERSAL-JKFIT

    Orbital Energies [Eh]
    ---------------------

    Alpha Occupied:

       1A    -19.174401     2A    -10.216822     3A     -1.049952
       4A     -0.665355     5A     -0.522344     6A     -0.443874
       7A     -0.392856     8A     -0.350831     9A     -0.170148

    Alpha Virtual:

      10A      0.066363    11A      0.123488    12A      0.176650
      13A      0.228073    14A      0.447537    15A      0.475453
      16A      0.498316    17A      0.514958    18A      0.532015
      19A      0.573467    20A      0.635002    21A      0.663055
      22A      0.703747    23A      0.741812    24A      0.804224
      25A      0.854138    26A      0.930015    27A      0.963957
      28A      0.998241    29A      1.112040    30A      1.149813
      31A      1.205752    32A      1.294066    33A      1.369763
      34A      1.431882    35A      1.476003    36A      1.571192
      37A      1.727119    38A      1.780290    39A      1.857121
      40A      1.904209    41A      2.134176    42A      2.318114
      43A      2.644861    44A      2.879214    45A      3.000102
      46A      3.025298    47A      3.067070    48A      3.112407
      49A      3.194734    50A      3.208275    51A      3.305359
      52A      3.338043    53A      3.369870    54A      3.609251
      55A      3.652687    56A      3.805100    57A      3.952562
      58A      4.039962    59A      4.125667    60A      4.184098
      61A      4.282259    62A      4.552626    63A      5.015111
      64A      5.064531    65A      5.196781    66A      5.340690
      67A      5.508881    68A      5.529353    69A      5.681646
      70A      5.946933    71A      6.397190    72A      6.903652
      73A      6.981945    74A      7.061312    75A      7.317770
      76A      7.443785

    Beta Occupied:

       1A    -19.169033     2A    -10.203724     3A     -1.037578
       4A     -0.638895     5A     -0.512236     6A     -0.435117
       7A     -0.355947     8A     -0.336441

    Beta Virtual:

       9A     -0.015287    10A      0.069153    11A      0.134588
      12A      0.183115    13A      0.239325    14A      0.468526
      15A      0.480363    16A      0.512850    17A      0.532524
      18A      0.577014    19A      0.581088    20A      0.642886
      21A      0.675026    22A      0.723823    23A      0.767214
      24A      0.807037    25A      0.862614    26A      0.940190
      27A      0.974298    28A      1.006727    29A      1.127058
      30A      1.160492    31A      1.217835    32A      1.301784
      33A      1.376741    34A      1.438975    35A      1.485831
      36A      1.580324    37A      1.735785    38A      1.784738
      39A      1.873155    40A      1.911379    41A      2.143407
      42A      2.331004    43A      2.653212    44A      2.901603
      45A      3.029353    46A      3.046109    47A      3.093605
      48A      3.168039    49A      3.225355    50A      3.251119
      51A      3.344682    52A      3.378127    53A      3.406917
      54A      3.635664    55A      3.657471    56A      3.814443
      57A      3.954369    58A      4.045617    59A      4.129784
      60A      4.196364    61A      4.289883    62A      4.554580
      63A      5.020562    64A      5.073062    65A      5.206723
      66A      5.351933    67A      5.522827    68A      5.542023
      69A      5.695586    70A      5.949777    71A      6.400834
      72A      6.924303    73A      7.002551    74A      7.081611
      75A      7.322075    76A      7.447063

    Final Occupation by Irrep:
              A
    DOCC [     8 ]
    SOCC [     1 ]

  @DF-UKS Final Energy:  -115.06588038539219

   => Energetics <=

    Nuclear Repulsion Energy =             35.2238350049148181
    One-Electron Energy =                -226.1163814180692668
    Two-Electron Energy =                  88.0558046095788427
    DFT Exchange-Correlation Energy =     -12.2291385818166027
    Empirical Dispersion Energy =           0.0000000000000000
    VV10 Nonlocal Energy =                  0.0000000000000000
    Total Energy =                       -115.0658803853921910

  UHF NO Occupations:
  HONO-2 :    7  A 1.9996029
  HONO-1 :    8  A 1.9990429
  HONO-0 :    9  A 1.0000000
  LUNO+0 :   10  A 0.0009571
  LUNO+1 :   11  A 0.0003971
  LUNO+2 :   12  A 0.0001995
  LUNO+3 :   13  A 0.0000869

Computation Completed

Properties will be evaluated at   0.000000,   0.000000,   0.000000 [a0]

Properties computed using the SCF density matrix

  Nuclear Dipole Moment: [e a0]
     X:    -1.3426      Y:     0.7849      Z:    -0.2956

  Electronic Dipole Moment: [e a0]
     X:     1.3311      Y:    -0.2345      Z:     0.2126

  Dipole Moment: [e a0]
     X:    -0.0115      Y:     0.5504      Z:    -0.0830     Total:     0.5567

  Dipole Moment: [D]
     X:    -0.0293      Y:     1.3989      Z:    -0.2110     Total:     1.4150

*** tstop() called on n039 at Tue Mar 15 10:12:56 2022
Module time:
	user time   =      37.99 seconds =       0.63 minutes
	system time =       0.27 seconds =       0.00 minutes
	total time  =         38 seconds =       0.63 minutes
Total time:
	user time   =      37.99 seconds =       0.63 minutes
	system time =       0.27 seconds =       0.00 minutes
	total time  =         38 seconds =       0.63 minutes
Grab this energy -115.06588038539219
    Psi4 stopped on: Tuesday, 15 March 2022 10:12AM
    Psi4 wall time for execution: 0:00:38.30

*** Psi4 exiting successfully. Buy a developer a beer!
