                               Psi4 1.4a2.dev629

  ==> Input File <==

--------------------------------------------------------------------------
import os
memory 14 GB

molecule {
 C   -1.3778970014    0.0247299839    0.0549701276
 O    1.2064344270   -0.1125585442   -0.0045072984
 H    1.8678558440    1.5599685759    0.1594115896
 H   -2.2789327959    1.7815603058   -0.4704410542
 H   -2.2978090286   -1.7653198593   -0.2874379193
units bohr
0 2
}

basis {

assign 6-31g_2dfp_

[ 6-31g_2dfp_ ]

spherical

!----------------------------------------------------------------------
! Basis Set Exchange
! Version v0.8.13
! https://www.basissetexchange.org
!----------------------------------------------------------------------
!   Basis set: 6-31G(2df,p)
! Description: 6-31G(2df,p)
!        Role: orbital
!     Version: 0  (Data from the original Basis Set Exchange)
!----------------------------------------------------------------------

****
H     0
S    3   1.00
     18.7311370              0.03349460
      2.8253937              0.23472695
      0.6401217              0.81375733
S    1   1.00
      0.1612778              1.00000000
P    1   1.00
      1.5000000              1.0000000
P    1   1.00
      0.3750000              1.0000000
****
B     0
S    6   1.00
   2068.8823000              0.0018663
    310.6495700              0.0142515
     70.6830330              0.0695516
     19.8610800              0.2325729
      6.2993048              0.4670787
      2.1270270              0.3634314
SP   3   1.00
      4.7279710             -0.1303938              0.0745976
      1.1903377             -0.1307889              0.3078467
      0.3594117              1.1309444              0.7434568
SP   1   1.00
      0.1267512              1.0000000              1.0000000
D    1   1.00
      0.8020000              1.0000000
D    1   1.00
      0.2005000              1.0000000
F    1   1.00
      0.5000000              1.0000000
****
C     0
S    6   1.00
   3047.5249000              0.0018347
    457.3695100              0.0140373
    103.9486900              0.0688426
     29.2101550              0.2321844
      9.2866630              0.4679413
      3.1639270              0.3623120
SP   3   1.00
      7.8682724             -0.1193324              0.0689991
      1.8812885             -0.1608542              0.3164240
      0.5442493              1.1434564              0.7443083
SP   1   1.00
      0.1687144              1.0000000              1.0000000
D    1   1.00
      1.2520000              1.0000000
D    1   1.00
      0.3130000              1.0000000
F    1   1.00
      0.8000000              1.0000000
****
N     0
S    6   1.00
   4173.5110000              0.0018348
    627.4579000              0.0139950
    142.9021000              0.0685870
     40.2343300              0.2322410
     12.8202100              0.4690700
      4.3904370              0.3604550
SP   3   1.00
     11.6263580             -0.1149610              0.0675800
      2.7162800             -0.1691180              0.3239070
      0.7722180              1.1458520              0.7408950
SP   1   1.00
      0.2120313              1.0000000              1.0000000
D    1   1.00
      1.8260000              1.0000000
D    1   1.00
      0.4565000              1.0000000
F    1   1.00
      1.0000000              1.0000000
****
O     0
S    6   1.00
   5484.6717000              0.0018311
    825.2349500              0.0139501
    188.0469600              0.0684451
     52.9645000              0.2327143
     16.8975700              0.4701930
      5.7996353              0.3585209
SP   3   1.00
     15.5396160             -0.1107775              0.0708743
      3.5999336             -0.1480263              0.3397528
      1.0137618              1.1307670              0.7271586
SP   1   1.00
      0.2700058              1.0000000              1.0000000
D    1   1.00
      2.5840000              1.0000000
D    1   1.00
      0.6460000              1.0000000
F    1   1.00
      1.4000000              1.0000000
****
F     0
S    6   1.00
   7001.7130900              0.0018196169
   1051.3660900              0.0139160796
    239.2856900              0.0684053245
     67.3974453              0.233185760
     21.5199573              0.471267439
      7.40310130             0.356618546
SP   3   1.00
     20.8479528             -0.108506975            0.0716287243
      4.80830834            -0.146451658            0.3459121030
      1.34406986             1.128688580            0.7224699570
SP   1   1.00
      0.358151393            1.0000000              1.0000000
D    1   1.00
      3.5000000              1.0000000
D    1   1.00
      0.8750000              1.0000000
F    1   1.00
      1.8500000              1.0000000
****
Al     0
S    6   1.00
  13983.1000000              0.00194267
   2098.7500000              0.0148599
    477.7050000              0.0728494
    134.3600000              0.2468300
     42.8709000              0.4872580
     14.5189000              0.3234960
SP   6   1.00
    239.6680000             -0.00292619             0.00460285
     57.4419000             -0.0374080              0.0331990
     18.2859000             -0.1144870              0.1362820
      6.5991400              0.1156350              0.3304760
      2.4904900              0.6125950              0.4491460
      0.9445400              0.3937990              0.2657040
SP   3   1.00
      1.2779000             -0.2276060             -0.0175130
      0.3975900              0.00144583             0.2445330
      0.1600950              1.0927900              0.8049340
SP   1   1.00
      0.0556577              1.0000000              1.0000000
D    1   1.00
      0.6500000              1.0000000
D    1   1.00
      0.1625000              1.0000000
F    1   1.00
      0.2500000              1.0000000
****
Si     0
S    6   1.00
  16115.9000000              0.00195948
   2425.5800000              0.01492880
    553.8670000              0.07284780
    156.3400000              0.24613000
     50.0683000              0.48591400
     17.0178000              0.32500200
SP   6   1.00
    292.7180000             -0.00278094             0.00443826
     69.8731000             -0.03571460             0.03266790
     22.3363000             -0.11498500             0.13472100
      8.1503900              0.09356340             0.32867800
      3.1345800              0.60301700             0.44964000
      1.2254300              0.41895900             0.26137200
SP   3   1.00
      1.7273800             -0.24463000            -0.01779510
      0.5729220              0.00431572             0.25353900
      0.2221920              1.09818000             0.80066900
SP   1   1.00
      0.0778369              1.00000000             1.00000000
D    1   1.00
      0.9000000              1.0000000
D    1   1.00
      0.2250000              1.0000000
F    1   1.00
      0.3200000              1.0000000
****
P     0
S    6   1.00
  19413.3000000              0.0018516
   2909.4200000              0.0142062
    661.3640000              0.0699995
    185.7590000              0.2400790
     59.1943000              0.4847620
     20.0310000              0.3352000
SP   6   1.00
    339.4780000             -0.00278217             0.00456462
     81.0101000             -0.0360499              0.03369360
     25.8780000             -0.1166310              0.13975500
      9.4522100              0.0968328              0.33936200
      3.6656600              0.6144180              0.45092100
      1.4674600              0.4037980              0.23858600
SP   3   1.00
      2.1562300             -0.2529230             -0.01776530
      0.7489970              0.0328517              0.27405800
      0.2831450              1.0812500              0.78542100
SP   1   1.00
      0.0998317              1.0000000              1.00000000
D    1   1.00
      1.1000000              1.0000000
D    1   1.00
      0.2750000              1.0000000
F    1   1.00
      0.4500000              1.0000000
****
S     0
S    6   1.00
  21917.1000000              0.0018690
   3301.4900000              0.0142300
    754.1460000              0.0696960
    212.7110000              0.2384870
     67.9896000              0.4833070
     23.0515000              0.3380740
SP   6   1.00
    423.7350000             -0.0023767              0.0040610
    100.7100000             -0.0316930              0.0306810
     32.1599000             -0.1133170              0.1304520
     11.8079000              0.0560900              0.3272050
      4.6311000              0.5922550              0.4528510
      1.8702500              0.4550060              0.2560420
SP   3   1.00
      2.6158400             -0.2503740             -0.0145110
      0.9221670              0.0669570              0.3102630
      0.3412870              1.0545100              0.7544830
SP   1   1.00
      0.1171670              1.0000000              1.0000000
D    1   1.00
      1.3000000              1.0000000
D    1   1.00
      0.3250000              1.0000000
F    1   1.00
      0.5500000              1.0000000
****
Cl     0
S    6   1.00
  25180.1000000              0.0018330
   3780.3500000              0.0140340
    860.4740000              0.0690970
    242.1450000              0.2374520
     77.3349000              0.4830340
     26.2470000              0.3398560
SP   6   1.00
    491.7650000             -0.0022974              0.0039894
    116.9840000             -0.0307140              0.0303180
     37.4153000             -0.1125280              0.1298800
     13.7834000              0.0450160              0.3279510
      5.4521500              0.5893530              0.4535270
      2.2258800              0.4652060              0.2521540
SP   3   1.00
      3.1864900             -0.2518300             -0.0142990
      1.1442700              0.0615890              0.3235720
      0.4203770              1.0601800              0.7435070
SP   1   1.00
      0.1426570              1.0000000              1.0000000
D    1   1.00
      1.5000000              1.0000000
D    1   1.00
      0.3750000              1.0000000
F    1   1.00
      0.7000000              1.0000000
****
}

set {
reference uhf
freeze_core true
e_convergence 10
d_convergence 10
dft_spherical_points 1202
dft_radial_points 99
}

e = energy('b3lyp')

print_out('Grab this energy {0}'.format(e))
--------------------------------------------------------------------------

    Molecular point group: c1

    Geometry (in Bohr), charge = 0, multiplicity = 2:

       Center              X                  Y                   Z               Mass
    ------------   -----------------  -----------------  -----------------  -----------------
         C           -1.378927633127     0.021991659564     0.055473143149    12.000000000000
         O            1.205403795273    -0.115296868536    -0.004004282851    15.994914619570
         H            1.866825212273     1.557230251564     0.159914605149     1.007825032230
         H           -2.279963427627     1.778821981464    -0.469938038651     1.007825032230
         H           -2.298839660327    -1.768058183636    -0.286934903751     1.007825032230

  Charge       = 0
  Multiplicity = 2
  Basis Set: ANONYMOUS59931257
    Blend: 6-31G_2DFP_
  Basis Set: (ANONYMOUS59931257 AUX)
    Blend: DEF2-UNIVERSAL-JKFIT

    Orbital Energies [Eh]
    ---------------------

    Alpha Occupied:

       1A    -19.174025     2A    -10.216694     3A     -1.051892
       4A     -0.666168     5A     -0.523253     6A     -0.444016
       7A     -0.393464     8A     -0.351195     9A     -0.169962

    Alpha Virtual:

      10A      0.068006    11A      0.123768    12A      0.176355
      13A      0.229249    14A      0.447520    15A      0.476579
      16A      0.498224    17A      0.515081    18A      0.532052
      19A      0.574275    20A      0.635194    21A      0.663993
      22A      0.704704    23A      0.742050    24A      0.804986
      25A      0.854776    26A      0.930198    27A      0.964074
      28A      0.997335    29A      1.112657    30A      1.150567
      31A      1.207486    32A      1.296448    33A      1.370777
      34A      1.433749    35A      1.476935    36A      1.572125
      37A      1.728816    38A      1.781389    39A      1.858074
      40A      1.905179    41A      2.133901    42A      2.319567
      43A      2.651668    44A      2.879281    45A      3.002078
      46A      3.026326    47A      3.066905    48A      3.113329
      49A      3.195159    50A      3.209517    51A      3.305195
      52A      3.338862    53A      3.370887    54A      3.611173
      55A      3.655040    56A      3.804280    57A      3.958223
      58A      4.040326    59A      4.130865    60A      4.183701
      61A      4.289819    62A      4.553326    63A      5.013835
      64A      5.065840    65A      5.198016    66A      5.344024
      67A      5.516601    68A      5.529933    69A      5.688582
      70A      5.956120    71A      6.397826    72A      6.905542
      73A      6.983537    74A      7.061390    75A      7.317867
      76A      7.447916

    Beta Occupied:

       1A    -19.168653     2A    -10.203602     3A     -1.039532
       4A     -0.639877     5A     -0.512987     6A     -0.435246
       7A     -0.356391     8A     -0.336952

    Beta Virtual:

       9A     -0.015119    10A      0.070813    11A      0.134841
      12A      0.182812    13A      0.240452    14A      0.468498
      15A      0.481636    16A      0.512930    17A      0.532507
      18A      0.577533    19A      0.581432    20A      0.643082
      21A      0.676109    22A      0.724519    23A      0.767443
      24A      0.807814    25A      0.863171    26A      0.940556
      27A      0.974358    28A      1.005804    29A      1.127801
      30A      1.161140    31A      1.219793    32A      1.304205
      33A      1.377709    34A      1.440599    35A      1.486809
      36A      1.581268    37A      1.737438    38A      1.785917
      39A      1.874183    40A      1.912253    41A      2.143123
      42A      2.332471    43A      2.660276    44A      2.901716
      45A      3.030226    46A      3.047968    47A      3.093540
      48A      3.168715    49A      3.226263    50A      3.252293
      51A      3.344431    52A      3.378897    53A      3.407607
      54A      3.637494    55A      3.660010    56A      3.813574
      57A      3.960081    58A      4.045981    59A      4.135108
      60A      4.196067    61A      4.297188    62A      4.555316
      63A      5.019295    64A      5.074368    65A      5.207957
      66A      5.355296    67A      5.530781    68A      5.542684
      69A      5.702298    70A      5.958945    71A      6.401425
      72A      6.926192    73A      7.004159    74A      7.081716
      75A      7.322162    76A      7.451203

    Final Occupation by Irrep:
              A
    DOCC [     8 ]
    SOCC [     1 ]

  @DF-UKS Final Energy:  -115.06585633289552

   => Energetics <=

    Nuclear Repulsion Energy =             35.2869906866847174
    One-Electron Energy =                -226.2321408782360663
    Two-Electron Energy =                  88.1115743619774605
    DFT Exchange-Correlation Energy =     -12.2322805033216202
    Empirical Dispersion Energy =           0.0000000000000000
    VV10 Nonlocal Energy =                  0.0000000000000000
    Total Energy =                       -115.0658563328955211

  UHF NO Occupations:
  HONO-2 :    7  A 1.9996040
  HONO-1 :    8  A 1.9990432
  HONO-0 :    9  A 1.0000000
  LUNO+0 :   10  A 0.0009568
  LUNO+1 :   11  A 0.0003960
  LUNO+2 :   12  A 0.0001994
  LUNO+3 :   13  A 0.0000862

Computation Completed

Properties will be evaluated at   0.000000,   0.000000,   0.000000 [a0]

Properties computed using the SCF density matrix

  Nuclear Dipole Moment: [e a0]
     X:    -1.3423      Y:     0.7776      Z:    -0.2962

  Electronic Dipole Moment: [e a0]
     X:     1.3324      Y:    -0.2286      Z:     0.2129

  Dipole Moment: [e a0]
     X:    -0.0100      Y:     0.5490      Z:    -0.0832     Total:     0.5553

  Dipole Moment: [D]
     X:    -0.0253      Y:     1.3954      Z:    -0.2115     Total:     1.4115

*** tstop() called on n021 at Tue Mar 15 10:12:12 2022
Module time:
	user time   =      38.11 seconds =       0.64 minutes
	system time =       0.30 seconds =       0.01 minutes
	total time  =         39 seconds =       0.65 minutes
Total time:
	user time   =      38.11 seconds =       0.64 minutes
	system time =       0.30 seconds =       0.01 minutes
	total time  =         39 seconds =       0.65 minutes
Grab this energy -115.06585633289552
    Psi4 stopped on: Tuesday, 15 March 2022 10:12AM
    Psi4 wall time for execution: 0:00:38.46

*** Psi4 exiting successfully. Buy a developer a beer!
