                               Psi4 1.4a2.dev629

  ==> Input File <==

--------------------------------------------------------------------------
import os
memory 14 GB

molecule {
 C   -1.3789685242    0.0278945614    0.0573507695
 O    1.2043945454   -0.1169296778   -0.0042384456
 H    1.8820345185    1.5623352356    0.1605181521
 H   -2.2914726832    1.7806592903   -0.4724988208
 H   -2.2963364114   -1.7655789473   -0.2891362099
units bohr
0 2
}

basis {

assign 6-31g_2dfp_

[ 6-31g_2dfp_ ]

spherical

!----------------------------------------------------------------------
! Basis Set Exchange
! Version v0.8.13
! https://www.basissetexchange.org
!----------------------------------------------------------------------
!   Basis set: 6-31G(2df,p)
! Description: 6-31G(2df,p)
!        Role: orbital
!     Version: 0  (Data from the original Basis Set Exchange)
!----------------------------------------------------------------------

****
H     0
S    3   1.00
     18.7311370              0.03349460
      2.8253937              0.23472695
      0.6401217              0.81375733
S    1   1.00
      0.1612778              1.00000000
P    1   1.00
      1.5000000              1.0000000
P    1   1.00
      0.3750000              1.0000000
****
B     0
S    6   1.00
   2068.8823000              0.0018663
    310.6495700              0.0142515
     70.6830330              0.0695516
     19.8610800              0.2325729
      6.2993048              0.4670787
      2.1270270              0.3634314
SP   3   1.00
      4.7279710             -0.1303938              0.0745976
      1.1903377             -0.1307889              0.3078467
      0.3594117              1.1309444              0.7434568
SP   1   1.00
      0.1267512              1.0000000              1.0000000
D    1   1.00
      0.8020000              1.0000000
D    1   1.00
      0.2005000              1.0000000
F    1   1.00
      0.5000000              1.0000000
****
C     0
S    6   1.00
   3047.5249000              0.0018347
    457.3695100              0.0140373
    103.9486900              0.0688426
     29.2101550              0.2321844
      9.2866630              0.4679413
      3.1639270              0.3623120
SP   3   1.00
      7.8682724             -0.1193324              0.0689991
      1.8812885             -0.1608542              0.3164240
      0.5442493              1.1434564              0.7443083
SP   1   1.00
      0.1687144              1.0000000              1.0000000
D    1   1.00
      1.2520000              1.0000000
D    1   1.00
      0.3130000              1.0000000
F    1   1.00
      0.8000000              1.0000000
****
N     0
S    6   1.00
   4173.5110000              0.0018348
    627.4579000              0.0139950
    142.9021000              0.0685870
     40.2343300              0.2322410
     12.8202100              0.4690700
      4.3904370              0.3604550
SP   3   1.00
     11.6263580             -0.1149610              0.0675800
      2.7162800             -0.1691180              0.3239070
      0.7722180              1.1458520              0.7408950
SP   1   1.00
      0.2120313              1.0000000              1.0000000
D    1   1.00
      1.8260000              1.0000000
D    1   1.00
      0.4565000              1.0000000
F    1   1.00
      1.0000000              1.0000000
****
O     0
S    6   1.00
   5484.6717000              0.0018311
    825.2349500              0.0139501
    188.0469600              0.0684451
     52.9645000              0.2327143
     16.8975700              0.4701930
      5.7996353              0.3585209
SP   3   1.00
     15.5396160             -0.1107775              0.0708743
      3.5999336             -0.1480263              0.3397528
      1.0137618              1.1307670              0.7271586
SP   1   1.00
      0.2700058              1.0000000              1.0000000
D    1   1.00
      2.5840000              1.0000000
D    1   1.00
      0.6460000              1.0000000
F    1   1.00
      1.4000000              1.0000000
****
F     0
S    6   1.00
   7001.7130900              0.0018196169
   1051.3660900              0.0139160796
    239.2856900              0.0684053245
     67.3974453              0.233185760
     21.5199573              0.471267439
      7.40310130             0.356618546
SP   3   1.00
     20.8479528             -0.108506975            0.0716287243
      4.80830834            -0.146451658            0.3459121030
      1.34406986             1.128688580            0.7224699570
SP   1   1.00
      0.358151393            1.0000000              1.0000000
D    1   1.00
      3.5000000              1.0000000
D    1   1.00
      0.8750000              1.0000000
F    1   1.00
      1.8500000              1.0000000
****
Al     0
S    6   1.00
  13983.1000000              0.00194267
   2098.7500000              0.0148599
    477.7050000              0.0728494
    134.3600000              0.2468300
     42.8709000              0.4872580
     14.5189000              0.3234960
SP   6   1.00
    239.6680000             -0.00292619             0.00460285
     57.4419000             -0.0374080              0.0331990
     18.2859000             -0.1144870              0.1362820
      6.5991400              0.1156350              0.3304760
      2.4904900              0.6125950              0.4491460
      0.9445400              0.3937990              0.2657040
SP   3   1.00
      1.2779000             -0.2276060             -0.0175130
      0.3975900              0.00144583             0.2445330
      0.1600950              1.0927900              0.8049340
SP   1   1.00
      0.0556577              1.0000000              1.0000000
D    1   1.00
      0.6500000              1.0000000
D    1   1.00
      0.1625000              1.0000000
F    1   1.00
      0.2500000              1.0000000
****
Si     0
S    6   1.00
  16115.9000000              0.00195948
   2425.5800000              0.01492880
    553.8670000              0.07284780
    156.3400000              0.24613000
     50.0683000              0.48591400
     17.0178000              0.32500200
SP   6   1.00
    292.7180000             -0.00278094             0.00443826
     69.8731000             -0.03571460             0.03266790
     22.3363000             -0.11498500             0.13472100
      8.1503900              0.09356340             0.32867800
      3.1345800              0.60301700             0.44964000
      1.2254300              0.41895900             0.26137200
SP   3   1.00
      1.7273800             -0.24463000            -0.01779510
      0.5729220              0.00431572             0.25353900
      0.2221920              1.09818000             0.80066900
SP   1   1.00
      0.0778369              1.00000000             1.00000000
D    1   1.00
      0.9000000              1.0000000
D    1   1.00
      0.2250000              1.0000000
F    1   1.00
      0.3200000              1.0000000
****
P     0
S    6   1.00
  19413.3000000              0.0018516
   2909.4200000              0.0142062
    661.3640000              0.0699995
    185.7590000              0.2400790
     59.1943000              0.4847620
     20.0310000              0.3352000
SP   6   1.00
    339.4780000             -0.00278217             0.00456462
     81.0101000             -0.0360499              0.03369360
     25.8780000             -0.1166310              0.13975500
      9.4522100              0.0968328              0.33936200
      3.6656600              0.6144180              0.45092100
      1.4674600              0.4037980              0.23858600
SP   3   1.00
      2.1562300             -0.2529230             -0.01776530
      0.7489970              0.0328517              0.27405800
      0.2831450              1.0812500              0.78542100
SP   1   1.00
      0.0998317              1.0000000              1.00000000
D    1   1.00
      1.1000000              1.0000000
D    1   1.00
      0.2750000              1.0000000
F    1   1.00
      0.4500000              1.0000000
****
S     0
S    6   1.00
  21917.1000000              0.0018690
   3301.4900000              0.0142300
    754.1460000              0.0696960
    212.7110000              0.2384870
     67.9896000              0.4833070
     23.0515000              0.3380740
SP   6   1.00
    423.7350000             -0.0023767              0.0040610
    100.7100000             -0.0316930              0.0306810
     32.1599000             -0.1133170              0.1304520
     11.8079000              0.0560900              0.3272050
      4.6311000              0.5922550              0.4528510
      1.8702500              0.4550060              0.2560420
SP   3   1.00
      2.6158400             -0.2503740             -0.0145110
      0.9221670              0.0669570              0.3102630
      0.3412870              1.0545100              0.7544830
SP   1   1.00
      0.1171670              1.0000000              1.0000000
D    1   1.00
      1.3000000              1.0000000
D    1   1.00
      0.3250000              1.0000000
F    1   1.00
      0.5500000              1.0000000
****
Cl     0
S    6   1.00
  25180.1000000              0.0018330
   3780.3500000              0.0140340
    860.4740000              0.0690970
    242.1450000              0.2374520
     77.3349000              0.4830340
     26.2470000              0.3398560
SP   6   1.00
    491.7650000             -0.0022974              0.0039894
    116.9840000             -0.0307140              0.0303180
     37.4153000             -0.1125280              0.1298800
     13.7834000              0.0450160              0.3279510
      5.4521500              0.5893530              0.4535270
      2.2258800              0.4652060              0.2521540
SP   3   1.00
      3.1864900             -0.2518300             -0.0142990
      1.1442700              0.0615890              0.3235720
      0.4203770              1.0601800              0.7435070
SP   1   1.00
      0.1426570              1.0000000              1.0000000
D    1   1.00
      1.5000000              1.0000000
D    1   1.00
      0.3750000              1.0000000
F    1   1.00
      0.7000000              1.0000000
****
}

set {
reference uhf
freeze_core true
e_convergence 10
d_convergence 10
dft_spherical_points 1202
dft_radial_points 99
}

e = energy('b3lyp')

print_out('Grab this energy {0}'.format(e))
--------------------------------------------------------------------------

    Molecular point group: c1

    Geometry (in Bohr), charge = 0, multiplicity = 2:

       Center              X                  Y                   Z               Mass
    ------------   -----------------  -----------------  -----------------  -----------------
         C           -1.378633828624     0.026146777884     0.056880241497    12.000000000000
         O            1.204729240976    -0.118677461316    -0.004708973603    15.994914619570
         H            1.882369214076     1.560587452084     0.160047624097     1.007825032230
         H           -2.291137987624     1.778911506784    -0.472969348803     1.007825032230
         H           -2.296001715824    -1.767326730816    -0.289606737903     1.007825032230

  Charge       = 0
  Multiplicity = 2
  Basis Set: ANONYMOUS05536BAF
    Blend: 6-31G_2DFP_
  Basis Set: (ANONYMOUS05536BAF AUX)
    Blend: DEF2-UNIVERSAL-JKFIT

    Orbital Energies [Eh]
    ---------------------

    Alpha Occupied:

       1A    -19.174645     2A    -10.216845     3A     -1.050659
       4A     -0.665439     5A     -0.522637     6A     -0.443345
       7A     -0.393287     8A     -0.350762     9A     -0.169926

    Alpha Virtual:

      10A      0.066593    11A      0.123336    12A      0.175646
      13A      0.229337    14A      0.447895    15A      0.475427
      16A      0.497989    17A      0.515022    18A      0.532309
      19A      0.573768    20A      0.634268    21A      0.662303
      22A      0.703580    23A      0.742014    24A      0.802212
      25A      0.854060    26A      0.930941    27A      0.964455
      28A      0.997371    29A      1.111361    30A      1.153171
      31A      1.206743    32A      1.294307    33A      1.368899
      34A      1.430164    35A      1.475457    36A      1.571088
      37A      1.725347    38A      1.779228    39A      1.859197
      40A      1.902266    41A      2.132139    42A      2.318807
      43A      2.643839    44A      2.879870    45A      3.000972
      46A      3.026662    47A      3.065848    48A      3.113420
      49A      3.195718    50A      3.207521    51A      3.305817
      52A      3.339162    53A      3.370796    54A      3.611838
      55A      3.653342    56A      3.801853    57A      3.954117
      58A      4.038413    59A      4.124304    60A      4.182383
      61A      4.284440    62A      4.549907    63A      5.012139
      64A      5.060211    65A      5.197432    66A      5.338467
      67A      5.511464    68A      5.531579    69A      5.683585
      70A      5.948888    71A      6.397815    72A      6.903217
      73A      6.981784    74A      7.061820    75A      7.318036
      76A      7.445499

    Beta Occupied:

       1A    -19.169268     2A    -10.203752     3A     -1.038270
       4A     -0.639162     5A     -0.512374     6A     -0.434577
       7A     -0.356012     8A     -0.336729

    Beta Virtual:

       9A     -0.015060    10A      0.069373    11A      0.134395
      12A      0.182185    13A      0.240582    14A      0.468534
      15A      0.480592    16A      0.512779    17A      0.532539
      18A      0.577338    19A      0.581084    20A      0.642134
      21A      0.674355    22A      0.723698    23A      0.767389
      24A      0.804965    25A      0.862508    26A      0.941352
      27A      0.974694    28A      1.005806    29A      1.126475
      30A      1.163848    31A      1.218778    32A      1.302084
      33A      1.375845    34A      1.437276    35A      1.485319
      36A      1.580181    37A      1.733976    38A      1.783757
      39A      1.875420    40A      1.909218    41A      2.141454
      42A      2.331691    43A      2.652308    44A      2.902386
      45A      3.028248    46A      3.049099    47A      3.092456
      48A      3.168916    49A      3.224415    50A      3.252826
      51A      3.344830    52A      3.379070    53A      3.407739
      54A      3.637926    55A      3.658423    56A      3.811241
      57A      3.955976    58A      4.044115    59A      4.128248
      60A      4.194600    61A      4.292130    62A      4.551935
      63A      5.017697    64A      5.068680    65A      5.207410
      66A      5.349701    67A      5.525372    68A      5.544289
      69A      5.697611    70A      5.951764    71A      6.401457
      72A      6.923888    73A      7.002338    74A      7.082158
      75A      7.322399    76A      7.448806

    Final Occupation by Irrep:
              A
    DOCC [     8 ]
    SOCC [     1 ]

  @DF-UKS Final Energy:  -115.06591332845306

   => Energetics <=

    Nuclear Repulsion Energy =             35.2419790524291727
    One-Electron Energy =                -226.1507192075634407
    Two-Electron Energy =                  88.0718249858074103
    DFT Exchange-Correlation Energy =     -12.2289981591262134
    Empirical Dispersion Energy =           0.0000000000000000
    VV10 Nonlocal Energy =                  0.0000000000000000
    Total Energy =                       -115.0659133284530640

  UHF NO Occupations:
  HONO-2 :    7  A 1.9996047
  HONO-1 :    8  A 1.9990451
  HONO-0 :    9  A 1.0000000
  LUNO+0 :   10  A 0.0009549
  LUNO+1 :   11  A 0.0003953
  LUNO+2 :   12  A 0.0002003
  LUNO+3 :   13  A 0.0000862

Computation Completed

Properties will be evaluated at   0.000000,   0.000000,   0.000000 [a0]

Properties computed using the SCF density matrix

  Nuclear Dipole Moment: [e a0]
     X:    -1.3387      Y:     0.7796      Z:    -0.2989

  Electronic Dipole Moment: [e a0]
     X:     1.3351      Y:    -0.2286      Z:     0.2149

  Dipole Moment: [e a0]
     X:    -0.0036      Y:     0.5510      Z:    -0.0840     Total:     0.5574

  Dipole Moment: [D]
     X:    -0.0093      Y:     1.4006      Z:    -0.2136     Total:     1.4168

*** tstop() called on n049 at Tue Mar 15 10:14:19 2022
Module time:
	user time   =      31.45 seconds =       0.52 minutes
	system time =       0.33 seconds =       0.01 minutes
	total time  =         31 seconds =       0.52 minutes
Total time:
	user time   =      31.45 seconds =       0.52 minutes
	system time =       0.33 seconds =       0.01 minutes
	total time  =         31 seconds =       0.52 minutes
Grab this energy -115.06591332845306
    Psi4 stopped on: Tuesday, 15 March 2022 10:14AM
    Psi4 wall time for execution: 0:00:31.81

*** Psi4 exiting successfully. Buy a developer a beer!
