                               Psi4 1.4a2.dev629

  ==> Input File <==

--------------------------------------------------------------------------
import os
memory 14 GB

molecule {
 C   -1.3832735227    0.0233978582    0.0572680813
 O    1.2045675662   -0.1200135103   -0.0040199804
 H    1.8831111209    1.5655409247    0.1600945973
 H   -2.2908272451    1.7825570324   -0.4725388766
 H   -2.2939264744   -1.7631018429   -0.2888083764
units bohr
0 2
}

basis {

assign 6-31g_2dfp_

[ 6-31g_2dfp_ ]

spherical

!----------------------------------------------------------------------
! Basis Set Exchange
! Version v0.8.13
! https://www.basissetexchange.org
!----------------------------------------------------------------------
!   Basis set: 6-31G(2df,p)
! Description: 6-31G(2df,p)
!        Role: orbital
!     Version: 0  (Data from the original Basis Set Exchange)
!----------------------------------------------------------------------

****
H     0
S    3   1.00
     18.7311370              0.03349460
      2.8253937              0.23472695
      0.6401217              0.81375733
S    1   1.00
      0.1612778              1.00000000
P    1   1.00
      1.5000000              1.0000000
P    1   1.00
      0.3750000              1.0000000
****
B     0
S    6   1.00
   2068.8823000              0.0018663
    310.6495700              0.0142515
     70.6830330              0.0695516
     19.8610800              0.2325729
      6.2993048              0.4670787
      2.1270270              0.3634314
SP   3   1.00
      4.7279710             -0.1303938              0.0745976
      1.1903377             -0.1307889              0.3078467
      0.3594117              1.1309444              0.7434568
SP   1   1.00
      0.1267512              1.0000000              1.0000000
D    1   1.00
      0.8020000              1.0000000
D    1   1.00
      0.2005000              1.0000000
F    1   1.00
      0.5000000              1.0000000
****
C     0
S    6   1.00
   3047.5249000              0.0018347
    457.3695100              0.0140373
    103.9486900              0.0688426
     29.2101550              0.2321844
      9.2866630              0.4679413
      3.1639270              0.3623120
SP   3   1.00
      7.8682724             -0.1193324              0.0689991
      1.8812885             -0.1608542              0.3164240
      0.5442493              1.1434564              0.7443083
SP   1   1.00
      0.1687144              1.0000000              1.0000000
D    1   1.00
      1.2520000              1.0000000
D    1   1.00
      0.3130000              1.0000000
F    1   1.00
      0.8000000              1.0000000
****
N     0
S    6   1.00
   4173.5110000              0.0018348
    627.4579000              0.0139950
    142.9021000              0.0685870
     40.2343300              0.2322410
     12.8202100              0.4690700
      4.3904370              0.3604550
SP   3   1.00
     11.6263580             -0.1149610              0.0675800
      2.7162800             -0.1691180              0.3239070
      0.7722180              1.1458520              0.7408950
SP   1   1.00
      0.2120313              1.0000000              1.0000000
D    1   1.00
      1.8260000              1.0000000
D    1   1.00
      0.4565000              1.0000000
F    1   1.00
      1.0000000              1.0000000
****
O     0
S    6   1.00
   5484.6717000              0.0018311
    825.2349500              0.0139501
    188.0469600              0.0684451
     52.9645000              0.2327143
     16.8975700              0.4701930
      5.7996353              0.3585209
SP   3   1.00
     15.5396160             -0.1107775              0.0708743
      3.5999336             -0.1480263              0.3397528
      1.0137618              1.1307670              0.7271586
SP   1   1.00
      0.2700058              1.0000000              1.0000000
D    1   1.00
      2.5840000              1.0000000
D    1   1.00
      0.6460000              1.0000000
F    1   1.00
      1.4000000              1.0000000
****
F     0
S    6   1.00
   7001.7130900              0.0018196169
   1051.3660900              0.0139160796
    239.2856900              0.0684053245
     67.3974453              0.233185760
     21.5199573              0.471267439
      7.40310130             0.356618546
SP   3   1.00
     20.8479528             -0.108506975            0.0716287243
      4.80830834            -0.146451658            0.3459121030
      1.34406986             1.128688580            0.7224699570
SP   1   1.00
      0.358151393            1.0000000              1.0000000
D    1   1.00
      3.5000000              1.0000000
D    1   1.00
      0.8750000              1.0000000
F    1   1.00
      1.8500000              1.0000000
****
Al     0
S    6   1.00
  13983.1000000              0.00194267
   2098.7500000              0.0148599
    477.7050000              0.0728494
    134.3600000              0.2468300
     42.8709000              0.4872580
     14.5189000              0.3234960
SP   6   1.00
    239.6680000             -0.00292619             0.00460285
     57.4419000             -0.0374080              0.0331990
     18.2859000             -0.1144870              0.1362820
      6.5991400              0.1156350              0.3304760
      2.4904900              0.6125950              0.4491460
      0.9445400              0.3937990              0.2657040
SP   3   1.00
      1.2779000             -0.2276060             -0.0175130
      0.3975900              0.00144583             0.2445330
      0.1600950              1.0927900              0.8049340
SP   1   1.00
      0.0556577              1.0000000              1.0000000
D    1   1.00
      0.6500000              1.0000000
D    1   1.00
      0.1625000              1.0000000
F    1   1.00
      0.2500000              1.0000000
****
Si     0
S    6   1.00
  16115.9000000              0.00195948
   2425.5800000              0.01492880
    553.8670000              0.07284780
    156.3400000              0.24613000
     50.0683000              0.48591400
     17.0178000              0.32500200
SP   6   1.00
    292.7180000             -0.00278094             0.00443826
     69.8731000             -0.03571460             0.03266790
     22.3363000             -0.11498500             0.13472100
      8.1503900              0.09356340             0.32867800
      3.1345800              0.60301700             0.44964000
      1.2254300              0.41895900             0.26137200
SP   3   1.00
      1.7273800             -0.24463000            -0.01779510
      0.5729220              0.00431572             0.25353900
      0.2221920              1.09818000             0.80066900
SP   1   1.00
      0.0778369              1.00000000             1.00000000
D    1   1.00
      0.9000000              1.0000000
D    1   1.00
      0.2250000              1.0000000
F    1   1.00
      0.3200000              1.0000000
****
P     0
S    6   1.00
  19413.3000000              0.0018516
   2909.4200000              0.0142062
    661.3640000              0.0699995
    185.7590000              0.2400790
     59.1943000              0.4847620
     20.0310000              0.3352000
SP   6   1.00
    339.4780000             -0.00278217             0.00456462
     81.0101000             -0.0360499              0.03369360
     25.8780000             -0.1166310              0.13975500
      9.4522100              0.0968328              0.33936200
      3.6656600              0.6144180              0.45092100
      1.4674600              0.4037980              0.23858600
SP   3   1.00
      2.1562300             -0.2529230             -0.01776530
      0.7489970              0.0328517              0.27405800
      0.2831450              1.0812500              0.78542100
SP   1   1.00
      0.0998317              1.0000000              1.00000000
D    1   1.00
      1.1000000              1.0000000
D    1   1.00
      0.2750000              1.0000000
F    1   1.00
      0.4500000              1.0000000
****
S     0
S    6   1.00
  21917.1000000              0.0018690
   3301.4900000              0.0142300
    754.1460000              0.0696960
    212.7110000              0.2384870
     67.9896000              0.4833070
     23.0515000              0.3380740
SP   6   1.00
    423.7350000             -0.0023767              0.0040610
    100.7100000             -0.0316930              0.0306810
     32.1599000             -0.1133170              0.1304520
     11.8079000              0.0560900              0.3272050
      4.6311000              0.5922550              0.4528510
      1.8702500              0.4550060              0.2560420
SP   3   1.00
      2.6158400             -0.2503740             -0.0145110
      0.9221670              0.0669570              0.3102630
      0.3412870              1.0545100              0.7544830
SP   1   1.00
      0.1171670              1.0000000              1.0000000
D    1   1.00
      1.3000000              1.0000000
D    1   1.00
      0.3250000              1.0000000
F    1   1.00
      0.5500000              1.0000000
****
Cl     0
S    6   1.00
  25180.1000000              0.0018330
   3780.3500000              0.0140340
    860.4740000              0.0690970
    242.1450000              0.2374520
     77.3349000              0.4830340
     26.2470000              0.3398560
SP   6   1.00
    491.7650000             -0.0022974              0.0039894
    116.9840000             -0.0307140              0.0303180
     37.4153000             -0.1125280              0.1298800
     13.7834000              0.0450160              0.3279510
      5.4521500              0.5893530              0.4535270
      2.2258800              0.4652060              0.2521540
SP   3   1.00
      3.1864900             -0.2518300             -0.0142990
      1.1442700              0.0615890              0.3235720
      0.4203770              1.0601800              0.7435070
SP   1   1.00
      0.1426570              1.0000000              1.0000000
D    1   1.00
      1.5000000              1.0000000
D    1   1.00
      0.3750000              1.0000000
F    1   1.00
      0.7000000              1.0000000
****
}

set {
reference uhf
freeze_core true
e_convergence 10
d_convergence 10
dft_spherical_points 1202
dft_radial_points 99
}

e = energy('b3lyp')

print_out('Grab this energy {0}'.format(e))
--------------------------------------------------------------------------

    Molecular point group: c1

    Geometry (in Bohr), charge = 0, multiplicity = 2:

       Center              X                  Y                   Z               Mass
    ------------   -----------------  -----------------  -----------------  -----------------
         C           -1.381496836771     0.024733607494     0.056721300652    12.000000000000
         O            1.206344252129    -0.118677761006    -0.004566761048    15.994914619570
         H            1.884887806829     1.566876673994     0.159547816652     1.007825032230
         H           -2.289050559171     1.783892781694    -0.473085657248     1.007825032230
         H           -2.292149788471    -1.761766093606    -0.289355157048     1.007825032230

  Charge       = 0
  Multiplicity = 2
  Basis Set: ANONYMOUS2E60DAC7
    Blend: 6-31G_2DFP_
  Basis Set: (ANONYMOUS2E60DAC7 AUX)
    Blend: DEF2-UNIVERSAL-JKFIT

    Orbital Energies [Eh]
    ---------------------

    Alpha Occupied:

       1A    -19.174616     2A    -10.216802     3A     -1.049122
       4A     -0.665300     5A     -0.521671     6A     -0.443647
       7A     -0.392588     8A     -0.350820     9A     -0.170267

    Alpha Virtual:

      10A      0.065759    11A      0.123544    12A      0.176017
      13A      0.228171    14A      0.447642    15A      0.474490
      16A      0.497698    17A      0.515349    18A      0.532664
      19A      0.573558    20A      0.634727    21A      0.662150
      22A      0.703271    23A      0.741945    24A      0.801382
      25A      0.854337    26A      0.931298    27A      0.964258
      28A      0.997645    29A      1.111782    30A      1.152196
      31A      1.205805    32A      1.293741    33A      1.369360
      34A      1.428986    35A      1.475646    36A      1.570719
      37A      1.723692    38A      1.783729    39A      1.857997
      40A      1.901657    41A      2.131200    42A      2.317357
      43A      2.640817    44A      2.879438    45A      3.000976
      46A      3.025379    47A      3.064776    48A      3.112351
      49A      3.194545    50A      3.208561    51A      3.306176
      52A      3.338645    53A      3.370092    54A      3.609143
      55A      3.652363    56A      3.801412    57A      3.952580
      58A      4.040232    59A      4.122815    60A      4.187448
      61A      4.279686    62A      4.551325    63A      5.012127
      64A      5.067553    65A      5.195461    66A      5.336301
      67A      5.506842    68A      5.530149    69A      5.678646
      70A      5.942577    71A      6.396591    72A      6.902404
      73A      6.981194    74A      7.061567    75A      7.317233
      76A      7.442614

    Beta Occupied:

       1A    -19.169248     2A    -10.203704     3A     -1.036736
       4A     -0.638896     5A     -0.511502     6A     -0.434889
       7A     -0.355695     8A     -0.336437

    Beta Virtual:

       9A     -0.015383    10A      0.068549    11A      0.134624
      12A      0.182502    13A      0.239447    14A      0.468351
      15A      0.479532    16A      0.512821    17A      0.532635
      18A      0.577268    19A      0.581325    20A      0.642756
      21A      0.673983    22A      0.723465    23A      0.767302
      24A      0.804143    25A      0.862787    26A      0.941565
      27A      0.974588    28A      1.006153    29A      1.126901
      30A      1.162726    31A      1.217734    32A      1.301448
      33A      1.376378    34A      1.436145    35A      1.485529
      36A      1.579880    37A      1.732310    38A      1.788331
      39A      1.874113    40A      1.908681    41A      2.140471
      42A      2.330213    43A      2.649191    44A      2.901858
      45A      3.028092    46A      3.048483    47A      3.090810
      48A      3.168102    49A      3.225691    50A      3.251125
      51A      3.345539    52A      3.378706    53A      3.406773
      54A      3.635599    55A      3.657213    56A      3.810730
      57A      3.954426    58A      4.046105    59A      4.126702
      60A      4.199877    61A      4.287323    62A      4.553350
      63A      5.017865    64A      5.075842    65A      5.205440
      66A      5.347505    67A      5.520640    68A      5.542793
      69A      5.692717    70A      5.945448    71A      6.400254
      72A      6.923055    73A      7.001753    74A      7.081865
      75A      7.321586    76A      7.445894

    Final Occupation by Irrep:
              A
    DOCC [     8 ]
    SOCC [     1 ]

  @DF-UKS Final Energy:  -115.06587654541252

   => Energetics <=

    Nuclear Repulsion Energy =             35.2021710958833793
    One-Electron Energy =                -226.0775508308500434
    Two-Electron Energy =                  88.0373414431080334
    DFT Exchange-Correlation Energy =     -12.2278382535539052
    Empirical Dispersion Energy =           0.0000000000000000
    VV10 Nonlocal Energy =                  0.0000000000000000
    Total Energy =                       -115.0658765454125216

  UHF NO Occupations:
  HONO-2 :    7  A 1.9996042
  HONO-1 :    8  A 1.9990460
  HONO-0 :    9  A 1.0000000
  LUNO+0 :   10  A 0.0009540
  LUNO+1 :   11  A 0.0003958
  LUNO+2 :   12  A 0.0001990
  LUNO+3 :   13  A 0.0000870

Computation Completed

Properties will be evaluated at   0.000000,   0.000000,   0.000000 [a0]

Properties computed using the SCF density matrix

  Nuclear Dipole Moment: [e a0]
     X:    -1.3345      Y:     0.7880      Z:    -0.2991

  Electronic Dipole Moment: [e a0]
     X:     1.3278      Y:    -0.2372      Z:     0.2147

  Dipole Moment: [e a0]
     X:    -0.0067      Y:     0.5507      Z:    -0.0844     Total:     0.5572

  Dipole Moment: [D]
     X:    -0.0171      Y:     1.3998      Z:    -0.2146     Total:     1.4163

*** tstop() called on n040 at Tue Mar 15 10:14:41 2022
Module time:
	user time   =      38.14 seconds =       0.64 minutes
	system time =       0.25 seconds =       0.00 minutes
	total time  =         38 seconds =       0.63 minutes
Total time:
	user time   =      38.14 seconds =       0.64 minutes
	system time =       0.25 seconds =       0.00 minutes
	total time  =         38 seconds =       0.63 minutes
Grab this energy -115.06587654541252
    Psi4 stopped on: Tuesday, 15 March 2022 10:14AM
    Psi4 wall time for execution: 0:00:38.43

*** Psi4 exiting successfully. Buy a developer a beer!
