                               Psi4 1.4a2.dev629

  ==> Input File <==

--------------------------------------------------------------------------
import os
memory 14 GB

molecule {
 C   -1.3801043307    0.0324726840    0.0801668491
 O    1.2062744461   -0.1228041105   -0.0250483456
 H    1.8921875870    1.5495021658    0.1401628350
 H   -2.2890583306    1.7909996168   -0.4212520509
 H   -2.3098443118   -1.7418371061   -0.2631072876
units bohr
0 2
}

basis {

assign 6-31g_2dfp_

[ 6-31g_2dfp_ ]

spherical

!----------------------------------------------------------------------
! Basis Set Exchange
! Version v0.8.13
! https://www.basissetexchange.org
!----------------------------------------------------------------------
!   Basis set: 6-31G(2df,p)
! Description: 6-31G(2df,p)
!        Role: orbital
!     Version: 0  (Data from the original Basis Set Exchange)
!----------------------------------------------------------------------

****
H     0
S    3   1.00
     18.7311370              0.03349460
      2.8253937              0.23472695
      0.6401217              0.81375733
S    1   1.00
      0.1612778              1.00000000
P    1   1.00
      1.5000000              1.0000000
P    1   1.00
      0.3750000              1.0000000
****
B     0
S    6   1.00
   2068.8823000              0.0018663
    310.6495700              0.0142515
     70.6830330              0.0695516
     19.8610800              0.2325729
      6.2993048              0.4670787
      2.1270270              0.3634314
SP   3   1.00
      4.7279710             -0.1303938              0.0745976
      1.1903377             -0.1307889              0.3078467
      0.3594117              1.1309444              0.7434568
SP   1   1.00
      0.1267512              1.0000000              1.0000000
D    1   1.00
      0.8020000              1.0000000
D    1   1.00
      0.2005000              1.0000000
F    1   1.00
      0.5000000              1.0000000
****
C     0
S    6   1.00
   3047.5249000              0.0018347
    457.3695100              0.0140373
    103.9486900              0.0688426
     29.2101550              0.2321844
      9.2866630              0.4679413
      3.1639270              0.3623120
SP   3   1.00
      7.8682724             -0.1193324              0.0689991
      1.8812885             -0.1608542              0.3164240
      0.5442493              1.1434564              0.7443083
SP   1   1.00
      0.1687144              1.0000000              1.0000000
D    1   1.00
      1.2520000              1.0000000
D    1   1.00
      0.3130000              1.0000000
F    1   1.00
      0.8000000              1.0000000
****
N     0
S    6   1.00
   4173.5110000              0.0018348
    627.4579000              0.0139950
    142.9021000              0.0685870
     40.2343300              0.2322410
     12.8202100              0.4690700
      4.3904370              0.3604550
SP   3   1.00
     11.6263580             -0.1149610              0.0675800
      2.7162800             -0.1691180              0.3239070
      0.7722180              1.1458520              0.7408950
SP   1   1.00
      0.2120313              1.0000000              1.0000000
D    1   1.00
      1.8260000              1.0000000
D    1   1.00
      0.4565000              1.0000000
F    1   1.00
      1.0000000              1.0000000
****
O     0
S    6   1.00
   5484.6717000              0.0018311
    825.2349500              0.0139501
    188.0469600              0.0684451
     52.9645000              0.2327143
     16.8975700              0.4701930
      5.7996353              0.3585209
SP   3   1.00
     15.5396160             -0.1107775              0.0708743
      3.5999336             -0.1480263              0.3397528
      1.0137618              1.1307670              0.7271586
SP   1   1.00
      0.2700058              1.0000000              1.0000000
D    1   1.00
      2.5840000              1.0000000
D    1   1.00
      0.6460000              1.0000000
F    1   1.00
      1.4000000              1.0000000
****
F     0
S    6   1.00
   7001.7130900              0.0018196169
   1051.3660900              0.0139160796
    239.2856900              0.0684053245
     67.3974453              0.233185760
     21.5199573              0.471267439
      7.40310130             0.356618546
SP   3   1.00
     20.8479528             -0.108506975            0.0716287243
      4.80830834            -0.146451658            0.3459121030
      1.34406986             1.128688580            0.7224699570
SP   1   1.00
      0.358151393            1.0000000              1.0000000
D    1   1.00
      3.5000000              1.0000000
D    1   1.00
      0.8750000              1.0000000
F    1   1.00
      1.8500000              1.0000000
****
Al     0
S    6   1.00
  13983.1000000              0.00194267
   2098.7500000              0.0148599
    477.7050000              0.0728494
    134.3600000              0.2468300
     42.8709000              0.4872580
     14.5189000              0.3234960
SP   6   1.00
    239.6680000             -0.00292619             0.00460285
     57.4419000             -0.0374080              0.0331990
     18.2859000             -0.1144870              0.1362820
      6.5991400              0.1156350              0.3304760
      2.4904900              0.6125950              0.4491460
      0.9445400              0.3937990              0.2657040
SP   3   1.00
      1.2779000             -0.2276060             -0.0175130
      0.3975900              0.00144583             0.2445330
      0.1600950              1.0927900              0.8049340
SP   1   1.00
      0.0556577              1.0000000              1.0000000
D    1   1.00
      0.6500000              1.0000000
D    1   1.00
      0.1625000              1.0000000
F    1   1.00
      0.2500000              1.0000000
****
Si     0
S    6   1.00
  16115.9000000              0.00195948
   2425.5800000              0.01492880
    553.8670000              0.07284780
    156.3400000              0.24613000
     50.0683000              0.48591400
     17.0178000              0.32500200
SP   6   1.00
    292.7180000             -0.00278094             0.00443826
     69.8731000             -0.03571460             0.03266790
     22.3363000             -0.11498500             0.13472100
      8.1503900              0.09356340             0.32867800
      3.1345800              0.60301700             0.44964000
      1.2254300              0.41895900             0.26137200
SP   3   1.00
      1.7273800             -0.24463000            -0.01779510
      0.5729220              0.00431572             0.25353900
      0.2221920              1.09818000             0.80066900
SP   1   1.00
      0.0778369              1.00000000             1.00000000
D    1   1.00
      0.9000000              1.0000000
D    1   1.00
      0.2250000              1.0000000
F    1   1.00
      0.3200000              1.0000000
****
P     0
S    6   1.00
  19413.3000000              0.0018516
   2909.4200000              0.0142062
    661.3640000              0.0699995
    185.7590000              0.2400790
     59.1943000              0.4847620
     20.0310000              0.3352000
SP   6   1.00
    339.4780000             -0.00278217             0.00456462
     81.0101000             -0.0360499              0.03369360
     25.8780000             -0.1166310              0.13975500
      9.4522100              0.0968328              0.33936200
      3.6656600              0.6144180              0.45092100
      1.4674600              0.4037980              0.23858600
SP   3   1.00
      2.1562300             -0.2529230             -0.01776530
      0.7489970              0.0328517              0.27405800
      0.2831450              1.0812500              0.78542100
SP   1   1.00
      0.0998317              1.0000000              1.00000000
D    1   1.00
      1.1000000              1.0000000
D    1   1.00
      0.2750000              1.0000000
F    1   1.00
      0.4500000              1.0000000
****
S     0
S    6   1.00
  21917.1000000              0.0018690
   3301.4900000              0.0142300
    754.1460000              0.0696960
    212.7110000              0.2384870
     67.9896000              0.4833070
     23.0515000              0.3380740
SP   6   1.00
    423.7350000             -0.0023767              0.0040610
    100.7100000             -0.0316930              0.0306810
     32.1599000             -0.1133170              0.1304520
     11.8079000              0.0560900              0.3272050
      4.6311000              0.5922550              0.4528510
      1.8702500              0.4550060              0.2560420
SP   3   1.00
      2.6158400             -0.2503740             -0.0145110
      0.9221670              0.0669570              0.3102630
      0.3412870              1.0545100              0.7544830
SP   1   1.00
      0.1171670              1.0000000              1.0000000
D    1   1.00
      1.3000000              1.0000000
D    1   1.00
      0.3250000              1.0000000
F    1   1.00
      0.5500000              1.0000000
****
Cl     0
S    6   1.00
  25180.1000000              0.0018330
   3780.3500000              0.0140340
    860.4740000              0.0690970
    242.1450000              0.2374520
     77.3349000              0.4830340
     26.2470000              0.3398560
SP   6   1.00
    491.7650000             -0.0022974              0.0039894
    116.9840000             -0.0307140              0.0303180
     37.4153000             -0.1125280              0.1298800
     13.7834000              0.0450160              0.3279510
      5.4521500              0.5893530              0.4535270
      2.2258800              0.4652060              0.2521540
SP   3   1.00
      3.1864900             -0.2518300             -0.0142990
      1.1442700              0.0615890              0.3235720
      0.4203770              1.0601800              0.7435070
SP   1   1.00
      0.1426570              1.0000000              1.0000000
D    1   1.00
      1.5000000              1.0000000
D    1   1.00
      0.3750000              1.0000000
F    1   1.00
      0.7000000              1.0000000
****
}

set {
reference uhf
freeze_core true
e_convergence 10
d_convergence 10
dft_spherical_points 1202
dft_radial_points 99
}

e = energy('b3lyp')

print_out('Grab this energy {0}'.format(e))
--------------------------------------------------------------------------

    Molecular point group: c1

    Geometry (in Bohr), charge = 0, multiplicity = 2:

       Center              X                  Y                   Z               Mass
    ------------   -----------------  -----------------  -----------------  -----------------
         C           -1.380269059328     0.031292570362     0.079750928693    12.000000000000
         O            1.206109717472    -0.123984224138    -0.025464266007    15.994914619570
         H            1.892022858372     1.548322052162     0.139746914593     1.007825032230
         H           -2.289223059228     1.789819503162    -0.421667971307     1.007825032230
         H           -2.310009040428    -1.743017219738    -0.263523208007     1.007825032230

  Charge       = 0
  Multiplicity = 2
  Basis Set: ANONYMOUS80445A3A
    Blend: 6-31G_2DFP_
  Basis Set: (ANONYMOUS80445A3A AUX)
    Blend: DEF2-UNIVERSAL-JKFIT

    Orbital Energies [Eh]
    ---------------------

    Alpha Occupied:

       1A    -19.174305     2A    -10.216447     3A     -1.049966
       4A     -0.666309     5A     -0.522532     6A     -0.443913
       7A     -0.392735     8A     -0.351123     9A     -0.170487

    Alpha Virtual:

      10A      0.067143    11A      0.124103    12A      0.176464
      13A      0.228439    14A      0.447893    15A      0.475053
      16A      0.498059    17A      0.515499    18A      0.532810
      19A      0.574294    20A      0.635804    21A      0.663167
      22A      0.703700    23A      0.741617    24A      0.802913
      25A      0.854724    26A      0.931898    27A      0.965365
      28A      0.997944    29A      1.112343    30A      1.153677
      31A      1.206699    32A      1.295414    33A      1.370993
      34A      1.431564    35A      1.477397    36A      1.571712
      37A      1.727190    38A      1.783963    39A      1.858890
      40A      1.903749    41A      2.133513    42A      2.316903
      43A      2.645685    44A      2.880127    45A      3.001386
      46A      3.025664    47A      3.065373    48A      3.111332
      49A      3.194262    50A      3.208510    51A      3.305086
      52A      3.337911    53A      3.370938    54A      3.609431
      55A      3.653618    56A      3.805246    57A      3.955541
      58A      4.043434    59A      4.127408    60A      4.190971
      61A      4.286770    62A      4.555934    63A      5.021919
      64A      5.069380    65A      5.198798    66A      5.338730
      67A      5.512586    68A      5.529367    69A      5.682018
      70A      5.948998    71A      6.395408    72A      6.903813
      73A      6.981338    74A      7.061903    75A      7.316625
      76A      7.443918

    Beta Occupied:

       1A    -19.168948     2A    -10.203350     3A     -1.037613
       4A     -0.639889     5A     -0.512378     6A     -0.435160
       7A     -0.355998     8A     -0.336621

    Beta Virtual:

       9A     -0.015566    10A      0.069926    11A      0.135171
      12A      0.182925    13A      0.239671    14A      0.468750
      15A      0.480011    16A      0.513115    17A      0.533226
      18A      0.577892    19A      0.581501    20A      0.643803
      21A      0.675185    22A      0.723666    23A      0.766924
      24A      0.805719    25A      0.863138    26A      0.942281
      27A      0.975624    28A      1.006321    29A      1.127370
      30A      1.164403    31A      1.218773    32A      1.303148
      33A      1.378016    34A      1.438599    35A      1.487281
      36A      1.580823    37A      1.735817    38A      1.788534
      39A      1.875002    40A      1.910677    41A      2.142909
      42A      2.329785    43A      2.654138    44A      2.902790
      45A      3.028291    46A      3.048323    47A      3.091327
      48A      3.167270    49A      3.225178    50A      3.251227
      51A      3.344936    52A      3.377925    53A      3.407444
      54A      3.635958    55A      3.658444    56A      3.814616
      57A      3.957399    58A      4.049253    59A      4.131383
      60A      4.203417    61A      4.294464    62A      4.557989
      63A      5.027795    64A      5.077699    65A      5.208650
      66A      5.349948    67A      5.526548    68A      5.542024
      69A      5.695837    70A      5.951850    71A      6.399033
      72A      6.924410    73A      7.001886    74A      7.082160
      75A      7.320952    76A      7.447181

    Final Occupation by Irrep:
              A
    DOCC [     8 ]
    SOCC [     1 ]

  @DF-UKS Final Energy:  -115.06585658799972

   => Energetics <=

    Nuclear Repulsion Energy =             35.2381984360393332
    One-Electron Energy =                -226.1415289413243386
    Two-Electron Energy =                  88.0684808089136197
    DFT Exchange-Correlation Energy =     -12.2310068916283470
    Empirical Dispersion Energy =           0.0000000000000000
    VV10 Nonlocal Energy =                  0.0000000000000000
    Total Energy =                       -115.0658565879997184

  UHF NO Occupations:
  HONO-2 :    7  A 1.9996048
  HONO-1 :    8  A 1.9990501
  HONO-0 :    9  A 1.0000000
  LUNO+0 :   10  A 0.0009499
  LUNO+1 :   11  A 0.0003952
  LUNO+2 :   12  A 0.0001985
  LUNO+3 :   13  A 0.0000867

Computation Completed

Properties will be evaluated at   0.000000,   0.000000,   0.000000 [a0]

Properties computed using the SCF density matrix

  Nuclear Dipole Moment: [e a0]
     X:    -1.3399      Y:     0.7910      Z:    -0.2707

  Electronic Dipole Moment: [e a0]
     X:     1.3322      Y:    -0.2405      Z:     0.1904

  Dipole Moment: [e a0]
     X:    -0.0078      Y:     0.5505      Z:    -0.0803     Total:     0.5563

  Dipole Moment: [D]
     X:    -0.0198      Y:     1.3991      Z:    -0.2041     Total:     1.4141

*** tstop() called on n082 at Thu Nov  4 15:14:15 2021
Module time:
	user time   =      27.28 seconds =       0.45 minutes
	system time =       0.35 seconds =       0.01 minutes
	total time  =         28 seconds =       0.47 minutes
Total time:
	user time   =      27.28 seconds =       0.45 minutes
	system time =       0.35 seconds =       0.01 minutes
	total time  =         28 seconds =       0.47 minutes
Grab this energy -115.06585658799972
    Psi4 stopped on: Thursday, 04 November 2021 03:14PM
    Psi4 wall time for execution: 0:00:27.66

*** Psi4 exiting successfully. Buy a developer a beer!
