                               Psi4 1.4a2.dev629

  ==> Input File <==

--------------------------------------------------------------------------
import os
memory 14 GB

molecule {
 C   -1.3788841942    0.0308600025    0.0779818314
 O    1.1979157216   -0.1215147792   -0.0246602491
 H    1.8827811777    1.5522372836    0.1384216645
 H   -2.2729549300    1.7958971105   -0.4186921887
 H   -2.3094027152   -1.7491463674   -0.2621290581
units bohr
0 2
}

basis {

assign 6-31g_2dfp_

[ 6-31g_2dfp_ ]

spherical

!----------------------------------------------------------------------
! Basis Set Exchange
! Version v0.8.13
! https://www.basissetexchange.org
!----------------------------------------------------------------------
!   Basis set: 6-31G(2df,p)
! Description: 6-31G(2df,p)
!        Role: orbital
!     Version: 0  (Data from the original Basis Set Exchange)
!----------------------------------------------------------------------

****
H     0
S    3   1.00
     18.7311370              0.03349460
      2.8253937              0.23472695
      0.6401217              0.81375733
S    1   1.00
      0.1612778              1.00000000
P    1   1.00
      1.5000000              1.0000000
P    1   1.00
      0.3750000              1.0000000
****
B     0
S    6   1.00
   2068.8823000              0.0018663
    310.6495700              0.0142515
     70.6830330              0.0695516
     19.8610800              0.2325729
      6.2993048              0.4670787
      2.1270270              0.3634314
SP   3   1.00
      4.7279710             -0.1303938              0.0745976
      1.1903377             -0.1307889              0.3078467
      0.3594117              1.1309444              0.7434568
SP   1   1.00
      0.1267512              1.0000000              1.0000000
D    1   1.00
      0.8020000              1.0000000
D    1   1.00
      0.2005000              1.0000000
F    1   1.00
      0.5000000              1.0000000
****
C     0
S    6   1.00
   3047.5249000              0.0018347
    457.3695100              0.0140373
    103.9486900              0.0688426
     29.2101550              0.2321844
      9.2866630              0.4679413
      3.1639270              0.3623120
SP   3   1.00
      7.8682724             -0.1193324              0.0689991
      1.8812885             -0.1608542              0.3164240
      0.5442493              1.1434564              0.7443083
SP   1   1.00
      0.1687144              1.0000000              1.0000000
D    1   1.00
      1.2520000              1.0000000
D    1   1.00
      0.3130000              1.0000000
F    1   1.00
      0.8000000              1.0000000
****
N     0
S    6   1.00
   4173.5110000              0.0018348
    627.4579000              0.0139950
    142.9021000              0.0685870
     40.2343300              0.2322410
     12.8202100              0.4690700
      4.3904370              0.3604550
SP   3   1.00
     11.6263580             -0.1149610              0.0675800
      2.7162800             -0.1691180              0.3239070
      0.7722180              1.1458520              0.7408950
SP   1   1.00
      0.2120313              1.0000000              1.0000000
D    1   1.00
      1.8260000              1.0000000
D    1   1.00
      0.4565000              1.0000000
F    1   1.00
      1.0000000              1.0000000
****
O     0
S    6   1.00
   5484.6717000              0.0018311
    825.2349500              0.0139501
    188.0469600              0.0684451
     52.9645000              0.2327143
     16.8975700              0.4701930
      5.7996353              0.3585209
SP   3   1.00
     15.5396160             -0.1107775              0.0708743
      3.5999336             -0.1480263              0.3397528
      1.0137618              1.1307670              0.7271586
SP   1   1.00
      0.2700058              1.0000000              1.0000000
D    1   1.00
      2.5840000              1.0000000
D    1   1.00
      0.6460000              1.0000000
F    1   1.00
      1.4000000              1.0000000
****
F     0
S    6   1.00
   7001.7130900              0.0018196169
   1051.3660900              0.0139160796
    239.2856900              0.0684053245
     67.3974453              0.233185760
     21.5199573              0.471267439
      7.40310130             0.356618546
SP   3   1.00
     20.8479528             -0.108506975            0.0716287243
      4.80830834            -0.146451658            0.3459121030
      1.34406986             1.128688580            0.7224699570
SP   1   1.00
      0.358151393            1.0000000              1.0000000
D    1   1.00
      3.5000000              1.0000000
D    1   1.00
      0.8750000              1.0000000
F    1   1.00
      1.8500000              1.0000000
****
Al     0
S    6   1.00
  13983.1000000              0.00194267
   2098.7500000              0.0148599
    477.7050000              0.0728494
    134.3600000              0.2468300
     42.8709000              0.4872580
     14.5189000              0.3234960
SP   6   1.00
    239.6680000             -0.00292619             0.00460285
     57.4419000             -0.0374080              0.0331990
     18.2859000             -0.1144870              0.1362820
      6.5991400              0.1156350              0.3304760
      2.4904900              0.6125950              0.4491460
      0.9445400              0.3937990              0.2657040
SP   3   1.00
      1.2779000             -0.2276060             -0.0175130
      0.3975900              0.00144583             0.2445330
      0.1600950              1.0927900              0.8049340
SP   1   1.00
      0.0556577              1.0000000              1.0000000
D    1   1.00
      0.6500000              1.0000000
D    1   1.00
      0.1625000              1.0000000
F    1   1.00
      0.2500000              1.0000000
****
Si     0
S    6   1.00
  16115.9000000              0.00195948
   2425.5800000              0.01492880
    553.8670000              0.07284780
    156.3400000              0.24613000
     50.0683000              0.48591400
     17.0178000              0.32500200
SP   6   1.00
    292.7180000             -0.00278094             0.00443826
     69.8731000             -0.03571460             0.03266790
     22.3363000             -0.11498500             0.13472100
      8.1503900              0.09356340             0.32867800
      3.1345800              0.60301700             0.44964000
      1.2254300              0.41895900             0.26137200
SP   3   1.00
      1.7273800             -0.24463000            -0.01779510
      0.5729220              0.00431572             0.25353900
      0.2221920              1.09818000             0.80066900
SP   1   1.00
      0.0778369              1.00000000             1.00000000
D    1   1.00
      0.9000000              1.0000000
D    1   1.00
      0.2250000              1.0000000
F    1   1.00
      0.3200000              1.0000000
****
P     0
S    6   1.00
  19413.3000000              0.0018516
   2909.4200000              0.0142062
    661.3640000              0.0699995
    185.7590000              0.2400790
     59.1943000              0.4847620
     20.0310000              0.3352000
SP   6   1.00
    339.4780000             -0.00278217             0.00456462
     81.0101000             -0.0360499              0.03369360
     25.8780000             -0.1166310              0.13975500
      9.4522100              0.0968328              0.33936200
      3.6656600              0.6144180              0.45092100
      1.4674600              0.4037980              0.23858600
SP   3   1.00
      2.1562300             -0.2529230             -0.01776530
      0.7489970              0.0328517              0.27405800
      0.2831450              1.0812500              0.78542100
SP   1   1.00
      0.0998317              1.0000000              1.00000000
D    1   1.00
      1.1000000              1.0000000
D    1   1.00
      0.2750000              1.0000000
F    1   1.00
      0.4500000              1.0000000
****
S     0
S    6   1.00
  21917.1000000              0.0018690
   3301.4900000              0.0142300
    754.1460000              0.0696960
    212.7110000              0.2384870
     67.9896000              0.4833070
     23.0515000              0.3380740
SP   6   1.00
    423.7350000             -0.0023767              0.0040610
    100.7100000             -0.0316930              0.0306810
     32.1599000             -0.1133170              0.1304520
     11.8079000              0.0560900              0.3272050
      4.6311000              0.5922550              0.4528510
      1.8702500              0.4550060              0.2560420
SP   3   1.00
      2.6158400             -0.2503740             -0.0145110
      0.9221670              0.0669570              0.3102630
      0.3412870              1.0545100              0.7544830
SP   1   1.00
      0.1171670              1.0000000              1.0000000
D    1   1.00
      1.3000000              1.0000000
D    1   1.00
      0.3250000              1.0000000
F    1   1.00
      0.5500000              1.0000000
****
Cl     0
S    6   1.00
  25180.1000000              0.0018330
   3780.3500000              0.0140340
    860.4740000              0.0690970
    242.1450000              0.2374520
     77.3349000              0.4830340
     26.2470000              0.3398560
SP   6   1.00
    491.7650000             -0.0022974              0.0039894
    116.9840000             -0.0307140              0.0303180
     37.4153000             -0.1125280              0.1298800
     13.7834000              0.0450160              0.3279510
      5.4521500              0.5893530              0.4535270
      2.2258800              0.4652060              0.2521540
SP   3   1.00
      3.1864900             -0.2518300             -0.0142990
      1.1442700              0.0615890              0.3235720
      0.4203770              1.0601800              0.7435070
SP   1   1.00
      0.1426570              1.0000000              1.0000000
D    1   1.00
      1.5000000              1.0000000
D    1   1.00
      0.3750000              1.0000000
F    1   1.00
      0.7000000              1.0000000
****
}

set {
reference uhf
freeze_core true
e_convergence 10
d_convergence 10
dft_spherical_points 1202
dft_radial_points 99
}

e = energy('b3lyp')

print_out('Grab this energy {0}'.format(e))
--------------------------------------------------------------------------

    Molecular point group: c1

    Geometry (in Bohr), charge = 0, multiplicity = 2:

       Center              X                  Y                   Z               Mass
    ------------   -----------------  -----------------  -----------------  -----------------
         C           -1.375442642807     0.029628421120     0.078152713210    12.000000000000
         O            1.201357272993    -0.122746360580    -0.024489367290    15.994914619570
         H            1.886222729093     1.551005702220     0.138592546310     1.007825032230
         H           -2.269513378607     1.794665529120    -0.418521306890     1.007825032230
         H           -2.305961163807    -1.750377948780    -0.261958176290     1.007825032230

  Charge       = 0
  Multiplicity = 2
  Basis Set: ANONYMOUSE97218B0
    Blend: 6-31G_2DFP_
  Basis Set: (ANONYMOUSE97218B0 AUX)
    Blend: DEF2-UNIVERSAL-JKFIT

    Orbital Energies [Eh]
    ---------------------

    Alpha Occupied:

       1A    -19.174266     2A    -10.215795     3A     -1.051625
       4A     -0.665995     5A     -0.523270     6A     -0.444488
       7A     -0.393726     8A     -0.350805     9A     -0.169205

    Alpha Virtual:

      10A      0.066668    11A      0.124572    12A      0.177091
      13A      0.230008    14A      0.447860    15A      0.476055
      16A      0.498247    17A      0.515222    18A      0.532232
      19A      0.573913    20A      0.636120    21A      0.663956
      22A      0.704255    23A      0.742832    24A      0.804028
      25A      0.855344    26A      0.930632    27A      0.964610
      28A      0.997950    29A      1.113506    30A      1.151483
      31A      1.207001    32A      1.296038    33A      1.371735
      34A      1.431272    35A      1.477918    36A      1.572749
      37A      1.728897    38A      1.783961    39A      1.859135
      40A      1.906851    41A      2.134486    42A      2.322898
      43A      2.646797    44A      2.879841    45A      3.002395
      46A      3.026196    47A      3.068819    48A      3.115226
      49A      3.195749    50A      3.211490    51A      3.305060
      52A      3.339489    53A      3.372137    54A      3.612198
      55A      3.654028    56A      3.807024    57A      3.957205
      58A      4.043098    59A      4.129449    60A      4.186877
      61A      4.287335    62A      4.558560    63A      5.016527
      64A      5.071482    65A      5.198344    66A      5.341817
      67A      5.513628    68A      5.533893    69A      5.688332
      70A      5.954982    71A      6.404356    72A      6.904217
      73A      6.983219    74A      7.061778    75A      7.321554
      76A      7.448627

    Beta Occupied:

       1A    -19.168861     2A    -10.202730     3A     -1.039189
       4A     -0.639775     5A     -0.512983     6A     -0.435694
       7A     -0.356147     8A     -0.336914

    Beta Virtual:

       9A     -0.014484    10A      0.069459    11A      0.135508
      12A      0.183516    13A      0.241190    14A      0.468870
      15A      0.481185    16A      0.513222    17A      0.532389
      18A      0.577443    19A      0.581141    20A      0.644021
      21A      0.675881    22A      0.724345    23A      0.768237
      24A      0.806798    25A      0.863876    26A      0.941020
      27A      0.974945    28A      1.006411    29A      1.128642
      30A      1.161950    31A      1.219061    32A      1.303717
      33A      1.378696    34A      1.438284    35A      1.487868
      36A      1.581987    37A      1.737662    38A      1.788507
      39A      1.875230    40A      1.913980    41A      2.143717
      42A      2.335918    43A      2.655275    44A      2.902122
      45A      3.030322    46A      3.048393    47A      3.095401
      48A      3.170066    49A      3.227568    50A      3.253584
      51A      3.344773    52A      3.379411    53A      3.407991
      54A      3.638539    55A      3.659032    56A      3.816184
      57A      3.959010    58A      4.048835    59A      4.133579
      60A      4.199273    61A      4.294991    62A      4.560574
      63A      5.022001    64A      5.080014    65A      5.208380
      66A      5.353107    67A      5.527610    68A      5.546678
      69A      5.702473    70A      5.957855    71A      6.408005
      72A      6.924995    73A      7.003874    74A      7.082223
      75A      7.325944    76A      7.451958

    Final Occupation by Irrep:
              A
    DOCC [     8 ]
    SOCC [     1 ]

  @DF-UKS Final Energy:  -115.06588486154752

   => Energetics <=

    Nuclear Repulsion Energy =             35.3193285927127718
    One-Electron Energy =                -226.2990517209361769
    Two-Electron Energy =                  88.1465116415377423
    DFT Exchange-Correlation Energy =     -12.2326733748618519
    Empirical Dispersion Energy =           0.0000000000000000
    VV10 Nonlocal Energy =                  0.0000000000000000
    Total Energy =                       -115.0658848615475165

  UHF NO Occupations:
  HONO-2 :    7  A 1.9996043
  HONO-1 :    8  A 1.9990467
  HONO-0 :    9  A 1.0000000
  LUNO+0 :   10  A 0.0009533
  LUNO+1 :   11  A 0.0003957
  LUNO+2 :   12  A 0.0001971
  LUNO+3 :   13  A 0.0000856

Computation Completed

Properties will be evaluated at   0.000000,   0.000000,   0.000000 [a0]

Properties computed using the SCF density matrix

  Nuclear Dipole Moment: [e a0]
     X:    -1.3310      Y:     0.7911      Z:    -0.2689

  Electronic Dipole Moment: [e a0]
     X:     1.3298      Y:    -0.2402      Z:     0.1890

  Dipole Moment: [e a0]
     X:    -0.0013      Y:     0.5509      Z:    -0.0799     Total:     0.5566

  Dipole Moment: [D]
     X:    -0.0032      Y:     1.4002      Z:    -0.2030     Total:     1.4148

*** tstop() called on n090 at Thu Nov  4 15:09:00 2021
Module time:
	user time   =      27.19 seconds =       0.45 minutes
	system time =       0.37 seconds =       0.01 minutes
	total time  =         28 seconds =       0.47 minutes
Total time:
	user time   =      27.19 seconds =       0.45 minutes
	system time =       0.37 seconds =       0.01 minutes
	total time  =         28 seconds =       0.47 minutes
Grab this energy -115.06588486154752
    Psi4 stopped on: Thursday, 04 November 2021 03:09PM
    Psi4 wall time for execution: 0:00:27.60

*** Psi4 exiting successfully. Buy a developer a beer!
