                               Psi4 1.4a2.dev629

  ==> Input File <==

--------------------------------------------------------------------------
import os
memory 14 GB

molecule {
 C   -1.3822017075    0.0202414862    0.0548796595
 O    1.2066027169   -0.1156383674   -0.0042803143
 H    1.8689048168    1.5631782029    0.1589775707
 H   -2.2782487645    1.7834395770   -0.4704687543
 H   -2.2954056166   -1.7628404367   -0.2871127163
units bohr
0 2
}

basis {

assign 6-31g_2dfp_

[ 6-31g_2dfp_ ]

spherical

!----------------------------------------------------------------------
! Basis Set Exchange
! Version v0.8.13
! https://www.basissetexchange.org
!----------------------------------------------------------------------
!   Basis set: 6-31G(2df,p)
! Description: 6-31G(2df,p)
!        Role: orbital
!     Version: 0  (Data from the original Basis Set Exchange)
!----------------------------------------------------------------------

****
H     0
S    3   1.00
     18.7311370              0.03349460
      2.8253937              0.23472695
      0.6401217              0.81375733
S    1   1.00
      0.1612778              1.00000000
P    1   1.00
      1.5000000              1.0000000
P    1   1.00
      0.3750000              1.0000000
****
B     0
S    6   1.00
   2068.8823000              0.0018663
    310.6495700              0.0142515
     70.6830330              0.0695516
     19.8610800              0.2325729
      6.2993048              0.4670787
      2.1270270              0.3634314
SP   3   1.00
      4.7279710             -0.1303938              0.0745976
      1.1903377             -0.1307889              0.3078467
      0.3594117              1.1309444              0.7434568
SP   1   1.00
      0.1267512              1.0000000              1.0000000
D    1   1.00
      0.8020000              1.0000000
D    1   1.00
      0.2005000              1.0000000
F    1   1.00
      0.5000000              1.0000000
****
C     0
S    6   1.00
   3047.5249000              0.0018347
    457.3695100              0.0140373
    103.9486900              0.0688426
     29.2101550              0.2321844
      9.2866630              0.4679413
      3.1639270              0.3623120
SP   3   1.00
      7.8682724             -0.1193324              0.0689991
      1.8812885             -0.1608542              0.3164240
      0.5442493              1.1434564              0.7443083
SP   1   1.00
      0.1687144              1.0000000              1.0000000
D    1   1.00
      1.2520000              1.0000000
D    1   1.00
      0.3130000              1.0000000
F    1   1.00
      0.8000000              1.0000000
****
N     0
S    6   1.00
   4173.5110000              0.0018348
    627.4579000              0.0139950
    142.9021000              0.0685870
     40.2343300              0.2322410
     12.8202100              0.4690700
      4.3904370              0.3604550
SP   3   1.00
     11.6263580             -0.1149610              0.0675800
      2.7162800             -0.1691180              0.3239070
      0.7722180              1.1458520              0.7408950
SP   1   1.00
      0.2120313              1.0000000              1.0000000
D    1   1.00
      1.8260000              1.0000000
D    1   1.00
      0.4565000              1.0000000
F    1   1.00
      1.0000000              1.0000000
****
O     0
S    6   1.00
   5484.6717000              0.0018311
    825.2349500              0.0139501
    188.0469600              0.0684451
     52.9645000              0.2327143
     16.8975700              0.4701930
      5.7996353              0.3585209
SP   3   1.00
     15.5396160             -0.1107775              0.0708743
      3.5999336             -0.1480263              0.3397528
      1.0137618              1.1307670              0.7271586
SP   1   1.00
      0.2700058              1.0000000              1.0000000
D    1   1.00
      2.5840000              1.0000000
D    1   1.00
      0.6460000              1.0000000
F    1   1.00
      1.4000000              1.0000000
****
F     0
S    6   1.00
   7001.7130900              0.0018196169
   1051.3660900              0.0139160796
    239.2856900              0.0684053245
     67.3974453              0.233185760
     21.5199573              0.471267439
      7.40310130             0.356618546
SP   3   1.00
     20.8479528             -0.108506975            0.0716287243
      4.80830834            -0.146451658            0.3459121030
      1.34406986             1.128688580            0.7224699570
SP   1   1.00
      0.358151393            1.0000000              1.0000000
D    1   1.00
      3.5000000              1.0000000
D    1   1.00
      0.8750000              1.0000000
F    1   1.00
      1.8500000              1.0000000
****
Al     0
S    6   1.00
  13983.1000000              0.00194267
   2098.7500000              0.0148599
    477.7050000              0.0728494
    134.3600000              0.2468300
     42.8709000              0.4872580
     14.5189000              0.3234960
SP   6   1.00
    239.6680000             -0.00292619             0.00460285
     57.4419000             -0.0374080              0.0331990
     18.2859000             -0.1144870              0.1362820
      6.5991400              0.1156350              0.3304760
      2.4904900              0.6125950              0.4491460
      0.9445400              0.3937990              0.2657040
SP   3   1.00
      1.2779000             -0.2276060             -0.0175130
      0.3975900              0.00144583             0.2445330
      0.1600950              1.0927900              0.8049340
SP   1   1.00
      0.0556577              1.0000000              1.0000000
D    1   1.00
      0.6500000              1.0000000
D    1   1.00
      0.1625000              1.0000000
F    1   1.00
      0.2500000              1.0000000
****
Si     0
S    6   1.00
  16115.9000000              0.00195948
   2425.5800000              0.01492880
    553.8670000              0.07284780
    156.3400000              0.24613000
     50.0683000              0.48591400
     17.0178000              0.32500200
SP   6   1.00
    292.7180000             -0.00278094             0.00443826
     69.8731000             -0.03571460             0.03266790
     22.3363000             -0.11498500             0.13472100
      8.1503900              0.09356340             0.32867800
      3.1345800              0.60301700             0.44964000
      1.2254300              0.41895900             0.26137200
SP   3   1.00
      1.7273800             -0.24463000            -0.01779510
      0.5729220              0.00431572             0.25353900
      0.2221920              1.09818000             0.80066900
SP   1   1.00
      0.0778369              1.00000000             1.00000000
D    1   1.00
      0.9000000              1.0000000
D    1   1.00
      0.2250000              1.0000000
F    1   1.00
      0.3200000              1.0000000
****
P     0
S    6   1.00
  19413.3000000              0.0018516
   2909.4200000              0.0142062
    661.3640000              0.0699995
    185.7590000              0.2400790
     59.1943000              0.4847620
     20.0310000              0.3352000
SP   6   1.00
    339.4780000             -0.00278217             0.00456462
     81.0101000             -0.0360499              0.03369360
     25.8780000             -0.1166310              0.13975500
      9.4522100              0.0968328              0.33936200
      3.6656600              0.6144180              0.45092100
      1.4674600              0.4037980              0.23858600
SP   3   1.00
      2.1562300             -0.2529230             -0.01776530
      0.7489970              0.0328517              0.27405800
      0.2831450              1.0812500              0.78542100
SP   1   1.00
      0.0998317              1.0000000              1.00000000
D    1   1.00
      1.1000000              1.0000000
D    1   1.00
      0.2750000              1.0000000
F    1   1.00
      0.4500000              1.0000000
****
S     0
S    6   1.00
  21917.1000000              0.0018690
   3301.4900000              0.0142300
    754.1460000              0.0696960
    212.7110000              0.2384870
     67.9896000              0.4833070
     23.0515000              0.3380740
SP   6   1.00
    423.7350000             -0.0023767              0.0040610
    100.7100000             -0.0316930              0.0306810
     32.1599000             -0.1133170              0.1304520
     11.8079000              0.0560900              0.3272050
      4.6311000              0.5922550              0.4528510
      1.8702500              0.4550060              0.2560420
SP   3   1.00
      2.6158400             -0.2503740             -0.0145110
      0.9221670              0.0669570              0.3102630
      0.3412870              1.0545100              0.7544830
SP   1   1.00
      0.1171670              1.0000000              1.0000000
D    1   1.00
      1.3000000              1.0000000
D    1   1.00
      0.3250000              1.0000000
F    1   1.00
      0.5500000              1.0000000
****
Cl     0
S    6   1.00
  25180.1000000              0.0018330
   3780.3500000              0.0140340
    860.4740000              0.0690970
    242.1450000              0.2374520
     77.3349000              0.4830340
     26.2470000              0.3398560
SP   6   1.00
    491.7650000             -0.0022974              0.0039894
    116.9840000             -0.0307140              0.0303180
     37.4153000             -0.1125280              0.1298800
     13.7834000              0.0450160              0.3279510
      5.4521500              0.5893530              0.4535270
      2.2258800              0.4652060              0.2521540
SP   3   1.00
      3.1864900             -0.2518300             -0.0142990
      1.1442700              0.0615890              0.3235720
      0.4203770              1.0601800              0.7435070
SP   1   1.00
      0.1426570              1.0000000              1.0000000
D    1   1.00
      1.5000000              1.0000000
D    1   1.00
      0.3750000              1.0000000
F    1   1.00
      0.7000000              1.0000000
****
}

set {
reference uhf
freeze_core true
e_convergence 10
d_convergence 10
dft_spherical_points 1202
dft_radial_points 99
}

e = energy('b3lyp')

print_out('Grab this energy {0}'.format(e))
--------------------------------------------------------------------------

    Molecular point group: c1

    Geometry (in Bohr), charge = 0, multiplicity = 2:

       Center              X                  Y                   Z               Mass
    ------------   -----------------  -----------------  -----------------  -----------------
         C           -1.381788166682     0.020581849676     0.055305063352    12.000000000000
         O            1.207016257718    -0.115298003924    -0.003854910448    15.994914619570
         H            1.869318357618     1.563518566376     0.159402974552     1.007825032230
         H           -2.277835223682     1.783779940476    -0.470043350448     1.007825032230
         H           -2.294992075782    -1.762500073224    -0.286687312448     1.007825032230

  Charge       = 0
  Multiplicity = 2
  Basis Set: ANONYMOUS51D21C43
    Blend: 6-31G_2DFP_
  Basis Set: (ANONYMOUS51D21C43 AUX)
    Blend: DEF2-UNIVERSAL-JKFIT

    Orbital Energies [Eh]
    ---------------------

    Alpha Occupied:

       1A    -19.174000     2A    -10.216651     3A     -1.050344
       4A     -0.666024     5A     -0.522288     6A     -0.444332
       7A     -0.392762     8A     -0.351240     9A     -0.170302

    Alpha Virtual:

      10A      0.067179    11A      0.123983    12A      0.176719
      13A      0.228082    14A      0.447247    15A      0.475663
      16A      0.497932    17A      0.515396    18A      0.532400
      19A      0.574033    20A      0.635628    21A      0.663869
      22A      0.704374    23A      0.741980    24A      0.804152
      25A      0.855051    26A      0.930545    27A      0.963896
      28A      0.997598    29A      1.113117    30A      1.149593
      31A      1.206511    32A      1.295918    33A      1.371251
      34A      1.432675    35A      1.477039    36A      1.571745
      37A      1.727174    38A      1.785829    39A      1.856889
      40A      1.904576    41A      2.132998    42A      2.318113
      43A      2.648669    44A      2.878834    45A      3.002105
      46A      3.024983    47A      3.065901    48A      3.112216
      49A      3.193743    50A      3.210816    51A      3.305458
      52A      3.338379    53A      3.370206    54A      3.608482
      55A      3.653997    56A      3.803709    57A      3.956713
      58A      4.042261    59A      4.129355    60A      4.188759
      61A      4.284892    62A      4.554769    63A      5.013952
      64A      5.073065    65A      5.196055    66A      5.341899
      67A      5.512126    68A      5.528544    69A      5.683469
      70A      5.949728    71A      6.396829    72A      6.904731
      73A      6.982851    74A      7.061138    75A      7.317115
      76A      7.444824

    Beta Occupied:

       1A    -19.168636     2A    -10.203555     3A     -1.037986
       4A     -0.639606     5A     -0.512117     6A     -0.435573
       7A     -0.356070     8A     -0.336648

    Beta Virtual:

       9A     -0.015440    10A      0.069996    11A      0.135077
      12A      0.183122    13A      0.239317    14A      0.468268
      15A      0.480617    16A      0.512974    17A      0.532588
      18A      0.577503    19A      0.581597    20A      0.643680
      21A      0.675761    22A      0.724274    23A      0.767352
      24A      0.806988    25A      0.863451    26A      0.940752
      27A      0.974284    28A      1.006134    29A      1.128270
      30A      1.160015    31A      1.218711    32A      1.303604
      33A      1.378251    34A      1.439570    35A      1.486936
      36A      1.580961    37A      1.735786    38A      1.790441
      39A      1.872881    40A      1.911723    41A      2.142177
      42A      2.330988    43A      2.657176    44A      2.901181
      45A      3.030093    46A      3.047298    47A      3.091935
      48A      3.167870    49A      3.227421    50A      3.250716
      51A      3.345082    52A      3.378523    53A      3.406679
      54A      3.635149    55A      3.658764    56A      3.812930
      57A      3.958559    58A      4.048086    59A      4.133559
      60A      4.201307    61A      4.292219    62A      4.556757
      63A      5.019577    64A      5.081429    65A      5.205996
      66A      5.353140    67A      5.526205    68A      5.541216
      69A      5.697232    70A      5.952548    71A      6.400449
      72A      6.925361    73A      7.003481    74A      7.081424
      75A      7.321397    76A      7.448086

    Final Occupation by Irrep:
              A
    DOCC [     8 ]
    SOCC [     1 ]

  @DF-UKS Final Energy:  -115.06584987420682

   => Energetics <=

    Nuclear Repulsion Energy =             35.2470141065387850
    One-Electron Energy =                -226.1587329755930682
    Two-Electron Energy =                  88.0769754304953096
    DFT Exchange-Correlation Energy =     -12.2311064356478401
    Empirical Dispersion Energy =           0.0000000000000000
    VV10 Nonlocal Energy =                  0.0000000000000000
    Total Energy =                       -115.0658498742068190

  UHF NO Occupations:
  HONO-2 :    7  A 1.9996035
  HONO-1 :    8  A 1.9990441
  HONO-0 :    9  A 1.0000000
  LUNO+0 :   10  A 0.0009559
  LUNO+1 :   11  A 0.0003965
  LUNO+2 :   12  A 0.0001981
  LUNO+3 :   13  A 0.0000871

Computation Completed

Properties will be evaluated at   0.000000,   0.000000,   0.000000 [a0]

Properties computed using the SCF density matrix

  Nuclear Dipole Moment: [e a0]
     X:    -1.3381      Y:     0.7859      Z:    -0.2963

  Electronic Dipole Moment: [e a0]
     X:     1.3251      Y:    -0.2372      Z:     0.2127

  Dipole Moment: [e a0]
     X:    -0.0130      Y:     0.5487      Z:    -0.0836     Total:     0.5552

  Dipole Moment: [D]
     X:    -0.0331      Y:     1.3947      Z:    -0.2125     Total:     1.4112

*** tstop() called on n023 at Tue Mar 15 10:12:12 2022
Module time:
	user time   =      38.10 seconds =       0.64 minutes
	system time =       0.29 seconds =       0.00 minutes
	total time  =         39 seconds =       0.65 minutes
Total time:
	user time   =      38.10 seconds =       0.64 minutes
	system time =       0.29 seconds =       0.00 minutes
	total time  =         39 seconds =       0.65 minutes
Grab this energy -115.06584987420682
    Psi4 stopped on: Tuesday, 15 March 2022 10:12AM
    Psi4 wall time for execution: 0:00:38.42

*** Psi4 exiting successfully. Buy a developer a beer!
