                               Psi4 1.4a2.dev629

  ==> Input File <==

--------------------------------------------------------------------------
import os
memory 14 GB

molecule {
 C   -1.3733056076    0.0358661227    0.0806477776
 O    1.1996629299   -0.1273290210   -0.0259646322
 H    1.8762107907    1.5474705990    0.1391478323
 H   -2.2804679723    1.8007542230   -0.4207672641
 H   -2.3026450806   -1.7484286736   -0.2621417136
units bohr
0 2
}

basis {

assign 6-31g_2dfp_

[ 6-31g_2dfp_ ]

spherical

!----------------------------------------------------------------------
! Basis Set Exchange
! Version v0.8.13
! https://www.basissetexchange.org
!----------------------------------------------------------------------
!   Basis set: 6-31G(2df,p)
! Description: 6-31G(2df,p)
!        Role: orbital
!     Version: 0  (Data from the original Basis Set Exchange)
!----------------------------------------------------------------------

****
H     0
S    3   1.00
     18.7311370              0.03349460
      2.8253937              0.23472695
      0.6401217              0.81375733
S    1   1.00
      0.1612778              1.00000000
P    1   1.00
      1.5000000              1.0000000
P    1   1.00
      0.3750000              1.0000000
****
B     0
S    6   1.00
   2068.8823000              0.0018663
    310.6495700              0.0142515
     70.6830330              0.0695516
     19.8610800              0.2325729
      6.2993048              0.4670787
      2.1270270              0.3634314
SP   3   1.00
      4.7279710             -0.1303938              0.0745976
      1.1903377             -0.1307889              0.3078467
      0.3594117              1.1309444              0.7434568
SP   1   1.00
      0.1267512              1.0000000              1.0000000
D    1   1.00
      0.8020000              1.0000000
D    1   1.00
      0.2005000              1.0000000
F    1   1.00
      0.5000000              1.0000000
****
C     0
S    6   1.00
   3047.5249000              0.0018347
    457.3695100              0.0140373
    103.9486900              0.0688426
     29.2101550              0.2321844
      9.2866630              0.4679413
      3.1639270              0.3623120
SP   3   1.00
      7.8682724             -0.1193324              0.0689991
      1.8812885             -0.1608542              0.3164240
      0.5442493              1.1434564              0.7443083
SP   1   1.00
      0.1687144              1.0000000              1.0000000
D    1   1.00
      1.2520000              1.0000000
D    1   1.00
      0.3130000              1.0000000
F    1   1.00
      0.8000000              1.0000000
****
N     0
S    6   1.00
   4173.5110000              0.0018348
    627.4579000              0.0139950
    142.9021000              0.0685870
     40.2343300              0.2322410
     12.8202100              0.4690700
      4.3904370              0.3604550
SP   3   1.00
     11.6263580             -0.1149610              0.0675800
      2.7162800             -0.1691180              0.3239070
      0.7722180              1.1458520              0.7408950
SP   1   1.00
      0.2120313              1.0000000              1.0000000
D    1   1.00
      1.8260000              1.0000000
D    1   1.00
      0.4565000              1.0000000
F    1   1.00
      1.0000000              1.0000000
****
O     0
S    6   1.00
   5484.6717000              0.0018311
    825.2349500              0.0139501
    188.0469600              0.0684451
     52.9645000              0.2327143
     16.8975700              0.4701930
      5.7996353              0.3585209
SP   3   1.00
     15.5396160             -0.1107775              0.0708743
      3.5999336             -0.1480263              0.3397528
      1.0137618              1.1307670              0.7271586
SP   1   1.00
      0.2700058              1.0000000              1.0000000
D    1   1.00
      2.5840000              1.0000000
D    1   1.00
      0.6460000              1.0000000
F    1   1.00
      1.4000000              1.0000000
****
F     0
S    6   1.00
   7001.7130900              0.0018196169
   1051.3660900              0.0139160796
    239.2856900              0.0684053245
     67.3974453              0.233185760
     21.5199573              0.471267439
      7.40310130             0.356618546
SP   3   1.00
     20.8479528             -0.108506975            0.0716287243
      4.80830834            -0.146451658            0.3459121030
      1.34406986             1.128688580            0.7224699570
SP   1   1.00
      0.358151393            1.0000000              1.0000000
D    1   1.00
      3.5000000              1.0000000
D    1   1.00
      0.8750000              1.0000000
F    1   1.00
      1.8500000              1.0000000
****
Al     0
S    6   1.00
  13983.1000000              0.00194267
   2098.7500000              0.0148599
    477.7050000              0.0728494
    134.3600000              0.2468300
     42.8709000              0.4872580
     14.5189000              0.3234960
SP   6   1.00
    239.6680000             -0.00292619             0.00460285
     57.4419000             -0.0374080              0.0331990
     18.2859000             -0.1144870              0.1362820
      6.5991400              0.1156350              0.3304760
      2.4904900              0.6125950              0.4491460
      0.9445400              0.3937990              0.2657040
SP   3   1.00
      1.2779000             -0.2276060             -0.0175130
      0.3975900              0.00144583             0.2445330
      0.1600950              1.0927900              0.8049340
SP   1   1.00
      0.0556577              1.0000000              1.0000000
D    1   1.00
      0.6500000              1.0000000
D    1   1.00
      0.1625000              1.0000000
F    1   1.00
      0.2500000              1.0000000
****
Si     0
S    6   1.00
  16115.9000000              0.00195948
   2425.5800000              0.01492880
    553.8670000              0.07284780
    156.3400000              0.24613000
     50.0683000              0.48591400
     17.0178000              0.32500200
SP   6   1.00
    292.7180000             -0.00278094             0.00443826
     69.8731000             -0.03571460             0.03266790
     22.3363000             -0.11498500             0.13472100
      8.1503900              0.09356340             0.32867800
      3.1345800              0.60301700             0.44964000
      1.2254300              0.41895900             0.26137200
SP   3   1.00
      1.7273800             -0.24463000            -0.01779510
      0.5729220              0.00431572             0.25353900
      0.2221920              1.09818000             0.80066900
SP   1   1.00
      0.0778369              1.00000000             1.00000000
D    1   1.00
      0.9000000              1.0000000
D    1   1.00
      0.2250000              1.0000000
F    1   1.00
      0.3200000              1.0000000
****
P     0
S    6   1.00
  19413.3000000              0.0018516
   2909.4200000              0.0142062
    661.3640000              0.0699995
    185.7590000              0.2400790
     59.1943000              0.4847620
     20.0310000              0.3352000
SP   6   1.00
    339.4780000             -0.00278217             0.00456462
     81.0101000             -0.0360499              0.03369360
     25.8780000             -0.1166310              0.13975500
      9.4522100              0.0968328              0.33936200
      3.6656600              0.6144180              0.45092100
      1.4674600              0.4037980              0.23858600
SP   3   1.00
      2.1562300             -0.2529230             -0.01776530
      0.7489970              0.0328517              0.27405800
      0.2831450              1.0812500              0.78542100
SP   1   1.00
      0.0998317              1.0000000              1.00000000
D    1   1.00
      1.1000000              1.0000000
D    1   1.00
      0.2750000              1.0000000
F    1   1.00
      0.4500000              1.0000000
****
S     0
S    6   1.00
  21917.1000000              0.0018690
   3301.4900000              0.0142300
    754.1460000              0.0696960
    212.7110000              0.2384870
     67.9896000              0.4833070
     23.0515000              0.3380740
SP   6   1.00
    423.7350000             -0.0023767              0.0040610
    100.7100000             -0.0316930              0.0306810
     32.1599000             -0.1133170              0.1304520
     11.8079000              0.0560900              0.3272050
      4.6311000              0.5922550              0.4528510
      1.8702500              0.4550060              0.2560420
SP   3   1.00
      2.6158400             -0.2503740             -0.0145110
      0.9221670              0.0669570              0.3102630
      0.3412870              1.0545100              0.7544830
SP   1   1.00
      0.1171670              1.0000000              1.0000000
D    1   1.00
      1.3000000              1.0000000
D    1   1.00
      0.3250000              1.0000000
F    1   1.00
      0.5500000              1.0000000
****
Cl     0
S    6   1.00
  25180.1000000              0.0018330
   3780.3500000              0.0140340
    860.4740000              0.0690970
    242.1450000              0.2374520
     77.3349000              0.4830340
     26.2470000              0.3398560
SP   6   1.00
    491.7650000             -0.0022974              0.0039894
    116.9840000             -0.0307140              0.0303180
     37.4153000             -0.1125280              0.1298800
     13.7834000              0.0450160              0.3279510
      5.4521500              0.5893530              0.4535270
      2.2258800              0.4652060              0.2521540
SP   3   1.00
      3.1864900             -0.2518300             -0.0142990
      1.1442700              0.0615890              0.3235720
      0.4203770              1.0601800              0.7435070
SP   1   1.00
      0.1426570              1.0000000              1.0000000
D    1   1.00
      1.5000000              1.0000000
D    1   1.00
      0.3750000              1.0000000
F    1   1.00
      0.7000000              1.0000000
****
}

set {
reference uhf
freeze_core true
e_convergence 10
d_convergence 10
dft_spherical_points 1202
dft_radial_points 99
}

e = energy('b3lyp')

print_out('Grab this energy {0}'.format(e))
--------------------------------------------------------------------------

    Molecular point group: c1

    Geometry (in Bohr), charge = 0, multiplicity = 2:

       Center              X                  Y                   Z               Mass
    ------------   -----------------  -----------------  -----------------  -----------------
         C           -1.372685168725     0.035669747008     0.080504147896    12.000000000000
         O            1.200283368775    -0.127525396692    -0.026108261904    15.994914619570
         H            1.876831229575     1.547274223308     0.139004202596     1.007825032230
         H           -2.279847533425     1.800557847308    -0.420910893804     1.007825032230
         H           -2.302024641725    -1.748625049292    -0.262285343304     1.007825032230

  Charge       = 0
  Multiplicity = 2
  Basis Set: ANONYMOUS886B4C8A
    Blend: 6-31G_2DFP_
  Basis Set: (ANONYMOUS886B4C8A AUX)
    Blend: DEF2-UNIVERSAL-JKFIT

    Orbital Energies [Eh]
    ---------------------

    Alpha Occupied:

       1A    -19.174782     2A    -10.216155     3A     -1.052982
       4A     -0.665508     5A     -0.523539     6A     -0.443941
       7A     -0.394449     8A     -0.351326     9A     -0.169209

    Alpha Virtual:

      10A      0.066945    11A      0.124183    12A      0.175877
      13A      0.230930    14A      0.447739    15A      0.478116
      16A      0.497578    17A      0.515119    18A      0.532218
      19A      0.573059    20A      0.634869    21A      0.662693
      22A      0.705107    23A      0.742852    24A      0.804219
      25A      0.854323    26A      0.930726    27A      0.964166
      28A      0.996398    29A      1.112608    30A      1.153750
      31A      1.208858    32A      1.295235    33A      1.370396
      34A      1.431413    35A      1.476096    36A      1.571562
      37A      1.725633    38A      1.783821    39A      1.861251
      40A      1.903430    41A      2.133025    42A      2.322592
      43A      2.648313    44A      2.879971    45A      3.004391
      46A      3.027448    47A      3.067434    48A      3.116024
      49A      3.196800    50A      3.209869    51A      3.305711
      52A      3.340667    53A      3.371671    54A      3.613829
      55A      3.654378    56A      3.802989    57A      3.958728
      58A      4.039175    59A      4.128264    60A      4.183573
      61A      4.285447    62A      4.551138    63A      5.010812
      64A      5.065226    65A      5.201695    66A      5.347830
      67A      5.512085    68A      5.533762    69A      5.691944
      70A      5.952096    71A      6.405698    72A      6.904595
      73A      6.985646    74A      7.061563    75A      7.318323
      76A      7.450781

    Beta Occupied:

       1A    -19.169368     2A    -10.203090     3A     -1.040552
       4A     -0.639389     5A     -0.513172     6A     -0.435130
       7A     -0.356826     8A     -0.337468

    Beta Virtual:

       9A     -0.014468    10A      0.069732    11A      0.135131
      12A      0.182371    13A      0.242133    14A      0.468364
      15A      0.483482    16A      0.512829    17A      0.531823
      18A      0.576785    19A      0.581031    20A      0.642812
      21A      0.674799    22A      0.725024    23A      0.768188
      24A      0.807000    25A      0.862743    26A      0.941385
      27A      0.974410    28A      1.004824    29A      1.127777
      30A      1.164229    31A      1.221008    32A      1.302987
      33A      1.377331    34A      1.438360    35A      1.486103
      36A      1.580779    37A      1.734245    38A      1.788523
      39A      1.877431    40A      1.910454    41A      2.142300
      42A      2.335616    43A      2.656980    44A      2.902377
      45A      3.031605    46A      3.050123    47A      3.093863
      48A      3.170865    49A      3.226334    50A      3.254546
      51A      3.344989    52A      3.380524    53A      3.407792
      54A      3.639405    55A      3.659912    56A      3.812310
      57A      3.960680    58A      4.044919    59A      4.132244
      60A      4.195892    61A      4.293068    62A      4.553197
      63A      5.016426    64A      5.073637    65A      5.211747
      66A      5.359146    67A      5.526157    68A      5.546562
      69A      5.706052    70A      5.954986    71A      6.409333
      72A      6.925393    73A      7.006338    74A      7.082056
      75A      7.322628    76A      7.454163

    Final Occupation by Irrep:
              A
    DOCC [     8 ]
    SOCC [     1 ]

  @DF-UKS Final Energy:  -115.06587949993700

   => Energetics <=

    Nuclear Repulsion Energy =             35.3350217124540862
    One-Electron Energy =                -226.3254078424168938
    Two-Electron Energy =                  88.1566430906650567
    DFT Exchange-Correlation Energy =     -12.2321364606392411
    Empirical Dispersion Energy =           0.0000000000000000
    VV10 Nonlocal Energy =                  0.0000000000000000
    Total Energy =                       -115.0658794999369974

  UHF NO Occupations:
  HONO-2 :    7  A 1.9996055
  HONO-1 :    8  A 1.9990473
  HONO-0 :    9  A 1.0000000
  LUNO+0 :   10  A 0.0009527
  LUNO+1 :   11  A 0.0003945
  LUNO+2 :   12  A 0.0001986
  LUNO+3 :   13  A 0.0000851

Computation Completed

Properties will be evaluated at   0.000000,   0.000000,   0.000000 [a0]

Properties computed using the SCF density matrix

  Nuclear Dipole Moment: [e a0]
     X:    -1.3389      Y:     0.7930      Z:    -0.2700

  Electronic Dipole Moment: [e a0]
     X:     1.3388      Y:    -0.2411      Z:     0.1900

  Dipole Moment: [e a0]
     X:    -0.0001      Y:     0.5519      Z:    -0.0800     Total:     0.5577

  Dipole Moment: [D]
     X:    -0.0002      Y:     1.4029      Z:    -0.2035     Total:     1.4175

*** tstop() called on n040 at Thu Nov  4 15:12:12 2021
Module time:
	user time   =      38.17 seconds =       0.64 minutes
	system time =       0.32 seconds =       0.01 minutes
	total time  =         39 seconds =       0.65 minutes
Total time:
	user time   =      38.17 seconds =       0.64 minutes
	system time =       0.32 seconds =       0.01 minutes
	total time  =         39 seconds =       0.65 minutes
Grab this energy -115.065879499937
    Psi4 stopped on: Thursday, 04 November 2021 03:12PM
    Psi4 wall time for execution: 0:00:38.55

*** Psi4 exiting successfully. Buy a developer a beer!
