                               Psi4 1.4a2.dev629

  ==> Input File <==

--------------------------------------------------------------------------
import os
memory 14 GB

molecule {
 C   -1.3787152911    0.0229797814    0.0549248771
 O    1.2051056175   -0.1170373855   -0.0044745527
 H    1.8689901853    1.5639264975    0.1593692052
 H   -2.2791889673    1.7825823471   -0.4704746920
 H   -2.2965400994   -1.7640707784   -0.2873493924
units bohr
0 2
}

basis {

assign 6-31g_2dfp_

[ 6-31g_2dfp_ ]

spherical

!----------------------------------------------------------------------
! Basis Set Exchange
! Version v0.8.13
! https://www.basissetexchange.org
!----------------------------------------------------------------------
!   Basis set: 6-31G(2df,p)
! Description: 6-31G(2df,p)
!        Role: orbital
!     Version: 0  (Data from the original Basis Set Exchange)
!----------------------------------------------------------------------

****
H     0
S    3   1.00
     18.7311370              0.03349460
      2.8253937              0.23472695
      0.6401217              0.81375733
S    1   1.00
      0.1612778              1.00000000
P    1   1.00
      1.5000000              1.0000000
P    1   1.00
      0.3750000              1.0000000
****
B     0
S    6   1.00
   2068.8823000              0.0018663
    310.6495700              0.0142515
     70.6830330              0.0695516
     19.8610800              0.2325729
      6.2993048              0.4670787
      2.1270270              0.3634314
SP   3   1.00
      4.7279710             -0.1303938              0.0745976
      1.1903377             -0.1307889              0.3078467
      0.3594117              1.1309444              0.7434568
SP   1   1.00
      0.1267512              1.0000000              1.0000000
D    1   1.00
      0.8020000              1.0000000
D    1   1.00
      0.2005000              1.0000000
F    1   1.00
      0.5000000              1.0000000
****
C     0
S    6   1.00
   3047.5249000              0.0018347
    457.3695100              0.0140373
    103.9486900              0.0688426
     29.2101550              0.2321844
      9.2866630              0.4679413
      3.1639270              0.3623120
SP   3   1.00
      7.8682724             -0.1193324              0.0689991
      1.8812885             -0.1608542              0.3164240
      0.5442493              1.1434564              0.7443083
SP   1   1.00
      0.1687144              1.0000000              1.0000000
D    1   1.00
      1.2520000              1.0000000
D    1   1.00
      0.3130000              1.0000000
F    1   1.00
      0.8000000              1.0000000
****
N     0
S    6   1.00
   4173.5110000              0.0018348
    627.4579000              0.0139950
    142.9021000              0.0685870
     40.2343300              0.2322410
     12.8202100              0.4690700
      4.3904370              0.3604550
SP   3   1.00
     11.6263580             -0.1149610              0.0675800
      2.7162800             -0.1691180              0.3239070
      0.7722180              1.1458520              0.7408950
SP   1   1.00
      0.2120313              1.0000000              1.0000000
D    1   1.00
      1.8260000              1.0000000
D    1   1.00
      0.4565000              1.0000000
F    1   1.00
      1.0000000              1.0000000
****
O     0
S    6   1.00
   5484.6717000              0.0018311
    825.2349500              0.0139501
    188.0469600              0.0684451
     52.9645000              0.2327143
     16.8975700              0.4701930
      5.7996353              0.3585209
SP   3   1.00
     15.5396160             -0.1107775              0.0708743
      3.5999336             -0.1480263              0.3397528
      1.0137618              1.1307670              0.7271586
SP   1   1.00
      0.2700058              1.0000000              1.0000000
D    1   1.00
      2.5840000              1.0000000
D    1   1.00
      0.6460000              1.0000000
F    1   1.00
      1.4000000              1.0000000
****
F     0
S    6   1.00
   7001.7130900              0.0018196169
   1051.3660900              0.0139160796
    239.2856900              0.0684053245
     67.3974453              0.233185760
     21.5199573              0.471267439
      7.40310130             0.356618546
SP   3   1.00
     20.8479528             -0.108506975            0.0716287243
      4.80830834            -0.146451658            0.3459121030
      1.34406986             1.128688580            0.7224699570
SP   1   1.00
      0.358151393            1.0000000              1.0000000
D    1   1.00
      3.5000000              1.0000000
D    1   1.00
      0.8750000              1.0000000
F    1   1.00
      1.8500000              1.0000000
****
Al     0
S    6   1.00
  13983.1000000              0.00194267
   2098.7500000              0.0148599
    477.7050000              0.0728494
    134.3600000              0.2468300
     42.8709000              0.4872580
     14.5189000              0.3234960
SP   6   1.00
    239.6680000             -0.00292619             0.00460285
     57.4419000             -0.0374080              0.0331990
     18.2859000             -0.1144870              0.1362820
      6.5991400              0.1156350              0.3304760
      2.4904900              0.6125950              0.4491460
      0.9445400              0.3937990              0.2657040
SP   3   1.00
      1.2779000             -0.2276060             -0.0175130
      0.3975900              0.00144583             0.2445330
      0.1600950              1.0927900              0.8049340
SP   1   1.00
      0.0556577              1.0000000              1.0000000
D    1   1.00
      0.6500000              1.0000000
D    1   1.00
      0.1625000              1.0000000
F    1   1.00
      0.2500000              1.0000000
****
Si     0
S    6   1.00
  16115.9000000              0.00195948
   2425.5800000              0.01492880
    553.8670000              0.07284780
    156.3400000              0.24613000
     50.0683000              0.48591400
     17.0178000              0.32500200
SP   6   1.00
    292.7180000             -0.00278094             0.00443826
     69.8731000             -0.03571460             0.03266790
     22.3363000             -0.11498500             0.13472100
      8.1503900              0.09356340             0.32867800
      3.1345800              0.60301700             0.44964000
      1.2254300              0.41895900             0.26137200
SP   3   1.00
      1.7273800             -0.24463000            -0.01779510
      0.5729220              0.00431572             0.25353900
      0.2221920              1.09818000             0.80066900
SP   1   1.00
      0.0778369              1.00000000             1.00000000
D    1   1.00
      0.9000000              1.0000000
D    1   1.00
      0.2250000              1.0000000
F    1   1.00
      0.3200000              1.0000000
****
P     0
S    6   1.00
  19413.3000000              0.0018516
   2909.4200000              0.0142062
    661.3640000              0.0699995
    185.7590000              0.2400790
     59.1943000              0.4847620
     20.0310000              0.3352000
SP   6   1.00
    339.4780000             -0.00278217             0.00456462
     81.0101000             -0.0360499              0.03369360
     25.8780000             -0.1166310              0.13975500
      9.4522100              0.0968328              0.33936200
      3.6656600              0.6144180              0.45092100
      1.4674600              0.4037980              0.23858600
SP   3   1.00
      2.1562300             -0.2529230             -0.01776530
      0.7489970              0.0328517              0.27405800
      0.2831450              1.0812500              0.78542100
SP   1   1.00
      0.0998317              1.0000000              1.00000000
D    1   1.00
      1.1000000              1.0000000
D    1   1.00
      0.2750000              1.0000000
F    1   1.00
      0.4500000              1.0000000
****
S     0
S    6   1.00
  21917.1000000              0.0018690
   3301.4900000              0.0142300
    754.1460000              0.0696960
    212.7110000              0.2384870
     67.9896000              0.4833070
     23.0515000              0.3380740
SP   6   1.00
    423.7350000             -0.0023767              0.0040610
    100.7100000             -0.0316930              0.0306810
     32.1599000             -0.1133170              0.1304520
     11.8079000              0.0560900              0.3272050
      4.6311000              0.5922550              0.4528510
      1.8702500              0.4550060              0.2560420
SP   3   1.00
      2.6158400             -0.2503740             -0.0145110
      0.9221670              0.0669570              0.3102630
      0.3412870              1.0545100              0.7544830
SP   1   1.00
      0.1171670              1.0000000              1.0000000
D    1   1.00
      1.3000000              1.0000000
D    1   1.00
      0.3250000              1.0000000
F    1   1.00
      0.5500000              1.0000000
****
Cl     0
S    6   1.00
  25180.1000000              0.0018330
   3780.3500000              0.0140340
    860.4740000              0.0690970
    242.1450000              0.2374520
     77.3349000              0.4830340
     26.2470000              0.3398560
SP   6   1.00
    491.7650000             -0.0022974              0.0039894
    116.9840000             -0.0307140              0.0303180
     37.4153000             -0.1125280              0.1298800
     13.7834000              0.0450160              0.3279510
      5.4521500              0.5893530              0.4535270
      2.2258800              0.4652060              0.2521540
SP   3   1.00
      3.1864900             -0.2518300             -0.0142990
      1.1442700              0.0615890              0.3235720
      0.4203770              1.0601800              0.7435070
SP   1   1.00
      0.1426570              1.0000000              1.0000000
D    1   1.00
      1.5000000              1.0000000
D    1   1.00
      0.3750000              1.0000000
F    1   1.00
      0.7000000              1.0000000
****
}

set {
reference uhf
freeze_core true
e_convergence 10
d_convergence 10
dft_spherical_points 1202
dft_radial_points 99
}

e = energy('b3lyp')

print_out('Grab this energy {0}'.format(e))
--------------------------------------------------------------------------

    Molecular point group: c1

    Geometry (in Bohr), charge = 0, multiplicity = 2:

       Center              X                  Y                   Z               Mass
    ------------   -----------------  -----------------  -----------------  -----------------
         C           -1.378813902470     0.023025719197     0.055428106676    12.000000000000
         O            1.205007006130    -0.116991447703    -0.003971323124    15.994914619570
         H            1.868891573930     1.563972435297     0.159872434776     1.007825032230
         H           -2.279287578670     1.782628284897    -0.469971462424     1.007825032230
         H           -2.296638710770    -1.764024840603    -0.286846162824     1.007825032230

  Charge       = 0
  Multiplicity = 2
  Basis Set: ANONYMOUS221FE3EF
    Blend: 6-31G_2DFP_
  Basis Set: (ANONYMOUS221FE3EF AUX)
    Blend: DEF2-UNIVERSAL-JKFIT

    Orbital Energies [Eh]
    ---------------------

    Alpha Occupied:

       1A    -19.174389     2A    -10.216501     3A     -1.051108
       4A     -0.665633     5A     -0.522750     6A     -0.444068
       7A     -0.393347     8A     -0.351164     9A     -0.169811

    Alpha Virtual:

      10A      0.066839    11A      0.123886    12A      0.176464
      13A      0.229081    14A      0.447479    15A      0.476387
      16A      0.497993    17A      0.515151    18A      0.532250
      19A      0.573500    20A      0.635231    21A      0.663310
      22A      0.704439    23A      0.742209    24A      0.804234
      25A      0.854512    26A      0.930493    27A      0.964076
      28A      0.997337    29A      1.112710    30A      1.150686
      31A      1.207061    32A      1.294920    33A      1.370650
      34A      1.432094    35A      1.476417    36A      1.571677
      37A      1.726923    38A      1.783455    39A      1.858301
      40A      1.903901    41A      2.134040    42A      2.319902
      43A      2.647502    44A      2.879257    45A      3.001978
      46A      3.026041    47A      3.066907    48A      3.113512
      49A      3.195226    50A      3.209911    51A      3.305229
      52A      3.339140    53A      3.370428    54A      3.610496
      55A      3.653644    56A      3.804194    57A      3.955993
      58A      4.040650    59A      4.127666    60A      4.185367
      61A      4.284124    62A      4.553513    63A      5.013513
      64A      5.067891    65A      5.198061    66A      5.343602
      67A      5.511127    68A      5.530686    69A      5.685603
      70A      5.949869    71A      6.400188    72A      6.904332
      73A      6.983515    74A      7.061297    75A      7.317951
      76A      7.446523

    Beta Occupied:

       1A    -19.169006     2A    -10.203415     3A     -1.038719
       4A     -0.639294     5A     -0.512534     6A     -0.435296
       7A     -0.356263     8A     -0.336896

    Beta Virtual:

       9A     -0.015001    10A      0.069635    11A      0.134944
      12A      0.182905    13A      0.240304    14A      0.468385
      15A      0.481444    16A      0.512935    17A      0.532329
      18A      0.577104    19A      0.581259    20A      0.643178
      21A      0.675293    22A      0.724405    23A      0.767571
      24A      0.807036    25A      0.862949    26A      0.940840
      27A      0.974398    28A      1.005826    29A      1.127843
      30A      1.161199    31A      1.219205    32A      1.302632
      33A      1.377612    34A      1.439069    35A      1.486326
      36A      1.580868    37A      1.735554    38A      1.788031
      39A      1.874364    40A      1.911012    41A      2.143262
      42A      2.332832    43A      2.655999    44A      2.901659
      45A      3.030250    46A      3.047819    47A      3.093305
      48A      3.168877    49A      3.226692    50A      3.252178
      51A      3.344645    52A      3.379123    53A      3.407061
      54A      3.636757    55A      3.658618    56A      3.813456
      57A      3.957854    58A      4.046357    59A      4.131777
      60A      4.197755    61A      4.291634    62A      4.555502
      63A      5.019057    64A      5.076327    65A      5.208040
      66A      5.354866    67A      5.525162    68A      5.543399
      69A      5.699545    70A      5.952720    71A      6.403818
      72A      6.925028    73A      7.004162    74A      7.081657
      75A      7.322247    76A      7.449827

    Final Occupation by Irrep:
              A
    DOCC [     8 ]
    SOCC [     1 ]

  @DF-UKS Final Energy:  -115.06588848580910

   => Energetics <=

    Nuclear Repulsion Energy =             35.2701016940692469
    One-Electron Energy =                -226.2031141049843654
    Two-Electron Energy =                  88.0979903667136455
    DFT Exchange-Correlation Energy =     -12.2308664416076169
    Empirical Dispersion Energy =           0.0000000000000000
    VV10 Nonlocal Energy =                  0.0000000000000000
    Total Energy =                       -115.0658884858090971

  UHF NO Occupations:
  HONO-2 :    7  A 1.9996036
  HONO-1 :    8  A 1.9990439
  HONO-0 :    9  A 1.0000000
  LUNO+0 :   10  A 0.0009561
  LUNO+1 :   11  A 0.0003964
  LUNO+2 :   12  A 0.0001988
  LUNO+3 :   13  A 0.0000864

Computation Completed

Properties will be evaluated at   0.000000,   0.000000,   0.000000 [a0]

Properties computed using the SCF density matrix

  Nuclear Dipole Moment: [e a0]
     X:    -1.3399      Y:     0.7848      Z:    -0.2961

  Electronic Dipole Moment: [e a0]
     X:     1.3311      Y:    -0.2346      Z:     0.2128

  Dipole Moment: [e a0]
     X:    -0.0088      Y:     0.5502      Z:    -0.0834     Total:     0.5565

  Dipole Moment: [D]
     X:    -0.0224      Y:     1.3984      Z:    -0.2119     Total:     1.4146

*** tstop() called on n033 at Tue Mar 15 10:12:11 2022
Module time:
	user time   =      38.12 seconds =       0.64 minutes
	system time =       0.32 seconds =       0.01 minutes
	total time  =         38 seconds =       0.63 minutes
Total time:
	user time   =      38.12 seconds =       0.64 minutes
	system time =       0.32 seconds =       0.01 minutes
	total time  =         38 seconds =       0.63 minutes
Grab this energy -115.0658884858091
    Psi4 stopped on: Tuesday, 15 March 2022 10:12AM
    Psi4 wall time for execution: 0:00:38.48

*** Psi4 exiting successfully. Buy a developer a beer!
