                               Psi4 1.4a2.dev629

  ==> Input File <==

--------------------------------------------------------------------------
import os
memory 14 GB

molecule {
 C   -1.3775231136    0.0287877647    0.0802870824
 O    1.2041277218   -0.1288490988   -0.0263301355
 H    1.8803759024    1.5558627377    0.1397371610
 H   -2.2778043361    1.7928230572   -0.4204483514
 H   -2.3097211145   -1.7402912107   -0.2623237565
units bohr
0 2
}

basis {

assign 6-31g_2dfp_

[ 6-31g_2dfp_ ]

spherical

!----------------------------------------------------------------------
! Basis Set Exchange
! Version v0.8.13
! https://www.basissetexchange.org
!----------------------------------------------------------------------
!   Basis set: 6-31G(2df,p)
! Description: 6-31G(2df,p)
!        Role: orbital
!     Version: 0  (Data from the original Basis Set Exchange)
!----------------------------------------------------------------------

****
H     0
S    3   1.00
     18.7311370              0.03349460
      2.8253937              0.23472695
      0.6401217              0.81375733
S    1   1.00
      0.1612778              1.00000000
P    1   1.00
      1.5000000              1.0000000
P    1   1.00
      0.3750000              1.0000000
****
B     0
S    6   1.00
   2068.8823000              0.0018663
    310.6495700              0.0142515
     70.6830330              0.0695516
     19.8610800              0.2325729
      6.2993048              0.4670787
      2.1270270              0.3634314
SP   3   1.00
      4.7279710             -0.1303938              0.0745976
      1.1903377             -0.1307889              0.3078467
      0.3594117              1.1309444              0.7434568
SP   1   1.00
      0.1267512              1.0000000              1.0000000
D    1   1.00
      0.8020000              1.0000000
D    1   1.00
      0.2005000              1.0000000
F    1   1.00
      0.5000000              1.0000000
****
C     0
S    6   1.00
   3047.5249000              0.0018347
    457.3695100              0.0140373
    103.9486900              0.0688426
     29.2101550              0.2321844
      9.2866630              0.4679413
      3.1639270              0.3623120
SP   3   1.00
      7.8682724             -0.1193324              0.0689991
      1.8812885             -0.1608542              0.3164240
      0.5442493              1.1434564              0.7443083
SP   1   1.00
      0.1687144              1.0000000              1.0000000
D    1   1.00
      1.2520000              1.0000000
D    1   1.00
      0.3130000              1.0000000
F    1   1.00
      0.8000000              1.0000000
****
N     0
S    6   1.00
   4173.5110000              0.0018348
    627.4579000              0.0139950
    142.9021000              0.0685870
     40.2343300              0.2322410
     12.8202100              0.4690700
      4.3904370              0.3604550
SP   3   1.00
     11.6263580             -0.1149610              0.0675800
      2.7162800             -0.1691180              0.3239070
      0.7722180              1.1458520              0.7408950
SP   1   1.00
      0.2120313              1.0000000              1.0000000
D    1   1.00
      1.8260000              1.0000000
D    1   1.00
      0.4565000              1.0000000
F    1   1.00
      1.0000000              1.0000000
****
O     0
S    6   1.00
   5484.6717000              0.0018311
    825.2349500              0.0139501
    188.0469600              0.0684451
     52.9645000              0.2327143
     16.8975700              0.4701930
      5.7996353              0.3585209
SP   3   1.00
     15.5396160             -0.1107775              0.0708743
      3.5999336             -0.1480263              0.3397528
      1.0137618              1.1307670              0.7271586
SP   1   1.00
      0.2700058              1.0000000              1.0000000
D    1   1.00
      2.5840000              1.0000000
D    1   1.00
      0.6460000              1.0000000
F    1   1.00
      1.4000000              1.0000000
****
F     0
S    6   1.00
   7001.7130900              0.0018196169
   1051.3660900              0.0139160796
    239.2856900              0.0684053245
     67.3974453              0.233185760
     21.5199573              0.471267439
      7.40310130             0.356618546
SP   3   1.00
     20.8479528             -0.108506975            0.0716287243
      4.80830834            -0.146451658            0.3459121030
      1.34406986             1.128688580            0.7224699570
SP   1   1.00
      0.358151393            1.0000000              1.0000000
D    1   1.00
      3.5000000              1.0000000
D    1   1.00
      0.8750000              1.0000000
F    1   1.00
      1.8500000              1.0000000
****
Al     0
S    6   1.00
  13983.1000000              0.00194267
   2098.7500000              0.0148599
    477.7050000              0.0728494
    134.3600000              0.2468300
     42.8709000              0.4872580
     14.5189000              0.3234960
SP   6   1.00
    239.6680000             -0.00292619             0.00460285
     57.4419000             -0.0374080              0.0331990
     18.2859000             -0.1144870              0.1362820
      6.5991400              0.1156350              0.3304760
      2.4904900              0.6125950              0.4491460
      0.9445400              0.3937990              0.2657040
SP   3   1.00
      1.2779000             -0.2276060             -0.0175130
      0.3975900              0.00144583             0.2445330
      0.1600950              1.0927900              0.8049340
SP   1   1.00
      0.0556577              1.0000000              1.0000000
D    1   1.00
      0.6500000              1.0000000
D    1   1.00
      0.1625000              1.0000000
F    1   1.00
      0.2500000              1.0000000
****
Si     0
S    6   1.00
  16115.9000000              0.00195948
   2425.5800000              0.01492880
    553.8670000              0.07284780
    156.3400000              0.24613000
     50.0683000              0.48591400
     17.0178000              0.32500200
SP   6   1.00
    292.7180000             -0.00278094             0.00443826
     69.8731000             -0.03571460             0.03266790
     22.3363000             -0.11498500             0.13472100
      8.1503900              0.09356340             0.32867800
      3.1345800              0.60301700             0.44964000
      1.2254300              0.41895900             0.26137200
SP   3   1.00
      1.7273800             -0.24463000            -0.01779510
      0.5729220              0.00431572             0.25353900
      0.2221920              1.09818000             0.80066900
SP   1   1.00
      0.0778369              1.00000000             1.00000000
D    1   1.00
      0.9000000              1.0000000
D    1   1.00
      0.2250000              1.0000000
F    1   1.00
      0.3200000              1.0000000
****
P     0
S    6   1.00
  19413.3000000              0.0018516
   2909.4200000              0.0142062
    661.3640000              0.0699995
    185.7590000              0.2400790
     59.1943000              0.4847620
     20.0310000              0.3352000
SP   6   1.00
    339.4780000             -0.00278217             0.00456462
     81.0101000             -0.0360499              0.03369360
     25.8780000             -0.1166310              0.13975500
      9.4522100              0.0968328              0.33936200
      3.6656600              0.6144180              0.45092100
      1.4674600              0.4037980              0.23858600
SP   3   1.00
      2.1562300             -0.2529230             -0.01776530
      0.7489970              0.0328517              0.27405800
      0.2831450              1.0812500              0.78542100
SP   1   1.00
      0.0998317              1.0000000              1.00000000
D    1   1.00
      1.1000000              1.0000000
D    1   1.00
      0.2750000              1.0000000
F    1   1.00
      0.4500000              1.0000000
****
S     0
S    6   1.00
  21917.1000000              0.0018690
   3301.4900000              0.0142300
    754.1460000              0.0696960
    212.7110000              0.2384870
     67.9896000              0.4833070
     23.0515000              0.3380740
SP   6   1.00
    423.7350000             -0.0023767              0.0040610
    100.7100000             -0.0316930              0.0306810
     32.1599000             -0.1133170              0.1304520
     11.8079000              0.0560900              0.3272050
      4.6311000              0.5922550              0.4528510
      1.8702500              0.4550060              0.2560420
SP   3   1.00
      2.6158400             -0.2503740             -0.0145110
      0.9221670              0.0669570              0.3102630
      0.3412870              1.0545100              0.7544830
SP   1   1.00
      0.1171670              1.0000000              1.0000000
D    1   1.00
      1.3000000              1.0000000
D    1   1.00
      0.3250000              1.0000000
F    1   1.00
      0.5500000              1.0000000
****
Cl     0
S    6   1.00
  25180.1000000              0.0018330
   3780.3500000              0.0140340
    860.4740000              0.0690970
    242.1450000              0.2374520
     77.3349000              0.4830340
     26.2470000              0.3398560
SP   6   1.00
    491.7650000             -0.0022974              0.0039894
    116.9840000             -0.0307140              0.0303180
     37.4153000             -0.1125280              0.1298800
     13.7834000              0.0450160              0.3279510
      5.4521500              0.5893530              0.4535270
      2.2258800              0.4652060              0.2521540
SP   3   1.00
      3.1864900             -0.2518300             -0.0142990
      1.1442700              0.0615890              0.3235720
      0.4203770              1.0601800              0.7435070
SP   1   1.00
      0.1426570              1.0000000              1.0000000
D    1   1.00
      1.5000000              1.0000000
D    1   1.00
      0.3750000              1.0000000
F    1   1.00
      0.7000000              1.0000000
****
}

set {
reference uhf
freeze_core true
e_convergence 10
d_convergence 10
dft_spherical_points 1202
dft_radial_points 99
}

e = energy('b3lyp')

print_out('Grab this energy {0}'.format(e))
--------------------------------------------------------------------------

    Molecular point group: c1

    Geometry (in Bohr), charge = 0, multiplicity = 2:

       Center              X                  Y                   Z               Mass
    ------------   -----------------  -----------------  -----------------  -----------------
         C           -1.377565335566     0.031834242448     0.080447873897    12.000000000000
         O            1.204085499834    -0.125802621052    -0.026169344003    15.994914619570
         H            1.880333680434     1.558909215448     0.139897952497     1.007825032230
         H           -2.277846558066     1.795869534948    -0.420287559903     1.007825032230
         H           -2.309763336466    -1.737244732952    -0.262162965003     1.007825032230

  Charge       = 0
  Multiplicity = 2
  Basis Set: ANONYMOUS684AD0B3
    Blend: 6-31G_2DFP_
  Basis Set: (ANONYMOUS684AD0B3 AUX)
    Blend: DEF2-UNIVERSAL-JKFIT

    Orbital Energies [Eh]
    ---------------------

    Alpha Occupied:

       1A    -19.174817     2A    -10.215887     3A     -1.050348
       4A     -0.665572     5A     -0.522521     6A     -0.444350
       7A     -0.393285     8A     -0.351346     9A     -0.169965

    Alpha Virtual:

      10A      0.065845    11A      0.124683    12A      0.176983
      13A      0.228859    14A      0.447800    15A      0.476553
      16A      0.497745    17A      0.515462    18A      0.532673
      19A      0.572796    20A      0.636216    21A      0.662638
      22A      0.704313    23A      0.742192    24A      0.804189
      25A      0.854357    26A      0.931521    27A      0.964938
      28A      0.997874    29A      1.112997    30A      1.153448
      31A      1.206969    32A      1.293948    33A      1.371468
      34A      1.431033    35A      1.477136    36A      1.571285
      37A      1.725785    38A      1.787439    39A      1.859993
      40A      1.903995    41A      2.134590    42A      2.319272
      43A      2.643335    44A      2.880181    45A      3.002824
      46A      3.025296    47A      3.067235    48A      3.112889
      49A      3.194881    50A      3.209696    51A      3.305224
      52A      3.338600    53A      3.370760    54A      3.609585
      55A      3.652362    56A      3.807244    57A      3.954684
      58A      4.043705    59A      4.125800    60A      4.192690
      61A      4.280523    62A      4.556609    63A      5.021647
      64A      5.073409    65A      5.201689    66A      5.344646
      67A      5.505325    68A      5.531092    69A      5.683657
      70A      5.942995    71A      6.402282    72A      6.903303
      73A      6.983666    74A      7.061597    75A      7.316987
      76A      7.445137

    Beta Occupied:

       1A    -19.169427     2A    -10.202811     3A     -1.037939
       4A     -0.639139     5A     -0.512421     6A     -0.435570
       7A     -0.356364     8A     -0.336872

    Beta Virtual:

       9A     -0.015149    10A      0.068617    11A      0.135664
      12A      0.183409    13A      0.240101    14A      0.468672
      15A      0.481559    16A      0.513074    17A      0.532515
      18A      0.576730    19A      0.581205    20A      0.644296
      21A      0.674569    22A      0.724326    23A      0.767475
      24A      0.807011    25A      0.862820    26A      0.941981
      27A      0.975249    28A      1.006257    29A      1.127948
      30A      1.164082    31A      1.218928    32A      1.301629
      33A      1.378528    34A      1.438138    35A      1.487125
      36A      1.580511    37A      1.734442    38A      1.792107
      39A      1.875974    40A      1.911092    41A      2.143956
      42A      2.332281    43A      2.651733    44A      2.902679
      45A      3.030834    46A      3.047314    47A      3.092862
      48A      3.168459    49A      3.226174    50A      3.251821
      51A      3.345482    52A      3.378556    53A      3.406779
      54A      3.635773    55A      3.657380    56A      3.816591
      57A      3.956590    58A      4.049557    59A      4.129678
      60A      4.205149    61A      4.288400    62A      4.558662
      63A      5.027562    64A      5.081677    65A      5.211618
      66A      5.355916    67A      5.519207    68A      5.543774
      69A      5.697775    70A      5.945883    71A      6.405945
      72A      6.924030    73A      7.004337    74A      7.081980
      75A      7.321270    76A      7.448462

    Final Occupation by Irrep:
              A
    DOCC [     8 ]
    SOCC [     1 ]

  @DF-UKS Final Energy:  -115.06583237744829

   => Energetics <=

    Nuclear Repulsion Energy =             35.2679542226921257
    One-Electron Energy =                -226.2001512436667952
    Two-Electron Energy =                  88.0973701745255227
    DFT Exchange-Correlation Energy =     -12.2310055309991252
    Empirical Dispersion Energy =           0.0000000000000000
    VV10 Nonlocal Energy =                  0.0000000000000000
    Total Energy =                       -115.0658323774482881

  UHF NO Occupations:
  HONO-2 :    7  A 1.9996045
  HONO-1 :    8  A 1.9990520
  HONO-0 :    9  A 1.0000000
  LUNO+0 :   10  A 0.0009480
  LUNO+1 :   11  A 0.0003955
  LUNO+2 :   12  A 0.0001970
  LUNO+3 :   13  A 0.0000863

Computation Completed

Properties will be evaluated at   0.000000,   0.000000,   0.000000 [a0]

Properties computed using the SCF density matrix

  Nuclear Dipole Moment: [e a0]
     X:    -1.3400      Y:     0.8021      Z:    -0.2692

  Electronic Dipole Moment: [e a0]
     X:     1.3325      Y:    -0.2500      Z:     0.1891

  Dipole Moment: [e a0]
     X:    -0.0075      Y:     0.5522      Z:    -0.0801     Total:     0.5580

  Dipole Moment: [D]
     X:    -0.0191      Y:     1.4035      Z:    -0.2036     Total:     1.4183

*** tstop() called on n073 at Thu Nov  4 15:12:51 2021
Module time:
	user time   =      32.56 seconds =       0.54 minutes
	system time =       0.39 seconds =       0.01 minutes
	total time  =         33 seconds =       0.55 minutes
Total time:
	user time   =      32.56 seconds =       0.54 minutes
	system time =       0.39 seconds =       0.01 minutes
	total time  =         33 seconds =       0.55 minutes
Grab this energy -115.06583237744829
    Psi4 stopped on: Thursday, 04 November 2021 03:12PM
    Psi4 wall time for execution: 0:00:32.98

*** Psi4 exiting successfully. Buy a developer a beer!
