                               Psi4 1.4a2.dev629

  ==> Input File <==

--------------------------------------------------------------------------
import os
memory 14 GB

molecule {
 C   -1.3767346872    0.0311387984    0.0815792253
 O    1.2066249467   -0.1250138677   -0.0216224940
 H    1.8786951294    1.5521987539    0.1355312406
 H   -2.2777004854    1.7917415119   -0.4192235417
 H   -2.3114298435   -1.7417319465   -0.2653424302
units bohr
0 2
}

basis {

assign 6-31g_2dfp_

[ 6-31g_2dfp_ ]

spherical

!----------------------------------------------------------------------
! Basis Set Exchange
! Version v0.8.13
! https://www.basissetexchange.org
!----------------------------------------------------------------------
!   Basis set: 6-31G(2df,p)
! Description: 6-31G(2df,p)
!        Role: orbital
!     Version: 0  (Data from the original Basis Set Exchange)
!----------------------------------------------------------------------

****
H     0
S    3   1.00
     18.7311370              0.03349460
      2.8253937              0.23472695
      0.6401217              0.81375733
S    1   1.00
      0.1612778              1.00000000
P    1   1.00
      1.5000000              1.0000000
P    1   1.00
      0.3750000              1.0000000
****
B     0
S    6   1.00
   2068.8823000              0.0018663
    310.6495700              0.0142515
     70.6830330              0.0695516
     19.8610800              0.2325729
      6.2993048              0.4670787
      2.1270270              0.3634314
SP   3   1.00
      4.7279710             -0.1303938              0.0745976
      1.1903377             -0.1307889              0.3078467
      0.3594117              1.1309444              0.7434568
SP   1   1.00
      0.1267512              1.0000000              1.0000000
D    1   1.00
      0.8020000              1.0000000
D    1   1.00
      0.2005000              1.0000000
F    1   1.00
      0.5000000              1.0000000
****
C     0
S    6   1.00
   3047.5249000              0.0018347
    457.3695100              0.0140373
    103.9486900              0.0688426
     29.2101550              0.2321844
      9.2866630              0.4679413
      3.1639270              0.3623120
SP   3   1.00
      7.8682724             -0.1193324              0.0689991
      1.8812885             -0.1608542              0.3164240
      0.5442493              1.1434564              0.7443083
SP   1   1.00
      0.1687144              1.0000000              1.0000000
D    1   1.00
      1.2520000              1.0000000
D    1   1.00
      0.3130000              1.0000000
F    1   1.00
      0.8000000              1.0000000
****
N     0
S    6   1.00
   4173.5110000              0.0018348
    627.4579000              0.0139950
    142.9021000              0.0685870
     40.2343300              0.2322410
     12.8202100              0.4690700
      4.3904370              0.3604550
SP   3   1.00
     11.6263580             -0.1149610              0.0675800
      2.7162800             -0.1691180              0.3239070
      0.7722180              1.1458520              0.7408950
SP   1   1.00
      0.2120313              1.0000000              1.0000000
D    1   1.00
      1.8260000              1.0000000
D    1   1.00
      0.4565000              1.0000000
F    1   1.00
      1.0000000              1.0000000
****
O     0
S    6   1.00
   5484.6717000              0.0018311
    825.2349500              0.0139501
    188.0469600              0.0684451
     52.9645000              0.2327143
     16.8975700              0.4701930
      5.7996353              0.3585209
SP   3   1.00
     15.5396160             -0.1107775              0.0708743
      3.5999336             -0.1480263              0.3397528
      1.0137618              1.1307670              0.7271586
SP   1   1.00
      0.2700058              1.0000000              1.0000000
D    1   1.00
      2.5840000              1.0000000
D    1   1.00
      0.6460000              1.0000000
F    1   1.00
      1.4000000              1.0000000
****
F     0
S    6   1.00
   7001.7130900              0.0018196169
   1051.3660900              0.0139160796
    239.2856900              0.0684053245
     67.3974453              0.233185760
     21.5199573              0.471267439
      7.40310130             0.356618546
SP   3   1.00
     20.8479528             -0.108506975            0.0716287243
      4.80830834            -0.146451658            0.3459121030
      1.34406986             1.128688580            0.7224699570
SP   1   1.00
      0.358151393            1.0000000              1.0000000
D    1   1.00
      3.5000000              1.0000000
D    1   1.00
      0.8750000              1.0000000
F    1   1.00
      1.8500000              1.0000000
****
Al     0
S    6   1.00
  13983.1000000              0.00194267
   2098.7500000              0.0148599
    477.7050000              0.0728494
    134.3600000              0.2468300
     42.8709000              0.4872580
     14.5189000              0.3234960
SP   6   1.00
    239.6680000             -0.00292619             0.00460285
     57.4419000             -0.0374080              0.0331990
     18.2859000             -0.1144870              0.1362820
      6.5991400              0.1156350              0.3304760
      2.4904900              0.6125950              0.4491460
      0.9445400              0.3937990              0.2657040
SP   3   1.00
      1.2779000             -0.2276060             -0.0175130
      0.3975900              0.00144583             0.2445330
      0.1600950              1.0927900              0.8049340
SP   1   1.00
      0.0556577              1.0000000              1.0000000
D    1   1.00
      0.6500000              1.0000000
D    1   1.00
      0.1625000              1.0000000
F    1   1.00
      0.2500000              1.0000000
****
Si     0
S    6   1.00
  16115.9000000              0.00195948
   2425.5800000              0.01492880
    553.8670000              0.07284780
    156.3400000              0.24613000
     50.0683000              0.48591400
     17.0178000              0.32500200
SP   6   1.00
    292.7180000             -0.00278094             0.00443826
     69.8731000             -0.03571460             0.03266790
     22.3363000             -0.11498500             0.13472100
      8.1503900              0.09356340             0.32867800
      3.1345800              0.60301700             0.44964000
      1.2254300              0.41895900             0.26137200
SP   3   1.00
      1.7273800             -0.24463000            -0.01779510
      0.5729220              0.00431572             0.25353900
      0.2221920              1.09818000             0.80066900
SP   1   1.00
      0.0778369              1.00000000             1.00000000
D    1   1.00
      0.9000000              1.0000000
D    1   1.00
      0.2250000              1.0000000
F    1   1.00
      0.3200000              1.0000000
****
P     0
S    6   1.00
  19413.3000000              0.0018516
   2909.4200000              0.0142062
    661.3640000              0.0699995
    185.7590000              0.2400790
     59.1943000              0.4847620
     20.0310000              0.3352000
SP   6   1.00
    339.4780000             -0.00278217             0.00456462
     81.0101000             -0.0360499              0.03369360
     25.8780000             -0.1166310              0.13975500
      9.4522100              0.0968328              0.33936200
      3.6656600              0.6144180              0.45092100
      1.4674600              0.4037980              0.23858600
SP   3   1.00
      2.1562300             -0.2529230             -0.01776530
      0.7489970              0.0328517              0.27405800
      0.2831450              1.0812500              0.78542100
SP   1   1.00
      0.0998317              1.0000000              1.00000000
D    1   1.00
      1.1000000              1.0000000
D    1   1.00
      0.2750000              1.0000000
F    1   1.00
      0.4500000              1.0000000
****
S     0
S    6   1.00
  21917.1000000              0.0018690
   3301.4900000              0.0142300
    754.1460000              0.0696960
    212.7110000              0.2384870
     67.9896000              0.4833070
     23.0515000              0.3380740
SP   6   1.00
    423.7350000             -0.0023767              0.0040610
    100.7100000             -0.0316930              0.0306810
     32.1599000             -0.1133170              0.1304520
     11.8079000              0.0560900              0.3272050
      4.6311000              0.5922550              0.4528510
      1.8702500              0.4550060              0.2560420
SP   3   1.00
      2.6158400             -0.2503740             -0.0145110
      0.9221670              0.0669570              0.3102630
      0.3412870              1.0545100              0.7544830
SP   1   1.00
      0.1171670              1.0000000              1.0000000
D    1   1.00
      1.3000000              1.0000000
D    1   1.00
      0.3250000              1.0000000
F    1   1.00
      0.5500000              1.0000000
****
Cl     0
S    6   1.00
  25180.1000000              0.0018330
   3780.3500000              0.0140340
    860.4740000              0.0690970
    242.1450000              0.2374520
     77.3349000              0.4830340
     26.2470000              0.3398560
SP   6   1.00
    491.7650000             -0.0022974              0.0039894
    116.9840000             -0.0307140              0.0303180
     37.4153000             -0.1125280              0.1298800
     13.7834000              0.0450160              0.3279510
      5.4521500              0.5893530              0.4535270
      2.2258800              0.4652060              0.2521540
SP   3   1.00
      3.1864900             -0.2518300             -0.0142990
      1.1442700              0.0615890              0.3235720
      0.4203770              1.0601800              0.7435070
SP   1   1.00
      0.1426570              1.0000000              1.0000000
D    1   1.00
      1.5000000              1.0000000
D    1   1.00
      0.3750000              1.0000000
F    1   1.00
      0.7000000              1.0000000
****
}

set {
reference uhf
freeze_core true
e_convergence 10
d_convergence 10
dft_spherical_points 1202
dft_radial_points 99
}

e = energy('b3lyp')

print_out('Grab this energy {0}'.format(e))
--------------------------------------------------------------------------

    Molecular point group: c1

    Geometry (in Bohr), charge = 0, multiplicity = 2:

       Center              X                  Y                   Z               Mass
    ------------   -----------------  -----------------  -----------------  -----------------
         C           -1.378262887472     0.031499065596     0.079007531116    12.000000000000
         O            1.205096746428    -0.124653600504    -0.024194188184    15.994914619570
         H            1.877166929128     1.552559021096     0.132959546416     1.007825032230
         H           -2.279228685672     1.792101779096    -0.421795235884     1.007825032230
         H           -2.312958043772    -1.741371679304    -0.267914124384     1.007825032230

  Charge       = 0
  Multiplicity = 2
  Basis Set: ANONYMOUS832CA4D2
    Blend: 6-31G_2DFP_
  Basis Set: (ANONYMOUS832CA4D2 AUX)
    Blend: DEF2-UNIVERSAL-JKFIT

    Orbital Energies [Eh]
    ---------------------

    Alpha Occupied:

       1A    -19.174494     2A    -10.216219     3A     -1.051054
       4A     -0.666035     5A     -0.523102     6A     -0.444089
       7A     -0.393095     8A     -0.351713     9A     -0.170232

    Alpha Virtual:

      10A      0.067072    11A      0.124468    12A      0.176631
      13A      0.228962    14A      0.447774    15A      0.476865
      16A      0.497824    17A      0.515291    18A      0.532429
      19A      0.573357    20A      0.636034    21A      0.663768
      22A      0.704189    23A      0.741896    24A      0.805076
      25A      0.854477    26A      0.930947    27A      0.964955
      28A      0.997386    29A      1.112841    30A      1.153570
      31A      1.207786    32A      1.295314    33A      1.371166
      34A      1.432906    35A      1.477254    36A      1.571356
      37A      1.728469    38A      1.784365    39A      1.859812
      40A      1.904373    41A      2.133950    42A      2.318208
      43A      2.648180    44A      2.879922    45A      3.003006
      46A      3.025807    47A      3.066791    48A      3.112344
      49A      3.194822    50A      3.208238    51A      3.305282
      52A      3.338504    53A      3.370774    54A      3.610010
      55A      3.653766    56A      3.807127    57A      3.956458
      58A      4.043135    59A      4.129512    60A      4.189967
      61A      4.285622    62A      4.555541    63A      5.022379
      64A      5.069485    65A      5.201740    66A      5.345481
      67A      5.510616    68A      5.529552    69A      5.685553
      70A      5.948513    71A      6.399385    72A      6.904510
      73A      6.983875    74A      7.061330    75A      7.316280
      76A      7.445926

    Beta Occupied:

       1A    -19.169115     2A    -10.203134     3A     -1.038678
       4A     -0.639624     5A     -0.512984     6A     -0.435301
       7A     -0.356154     8A     -0.337305

    Beta Virtual:

       9A     -0.015360    10A      0.069856    11A      0.135476
      12A      0.183097    13A      0.240185    14A      0.468646
      15A      0.481861    16A      0.512945    17A      0.532609
      18A      0.576963    19A      0.581265    20A      0.644045
      21A      0.675919    22A      0.724070    23A      0.767158
      24A      0.807939    25A      0.862866    26A      0.941371
      27A      0.975231    28A      1.005812    29A      1.127792
      30A      1.164291    31A      1.219916    32A      1.303022
      33A      1.378179    34A      1.439884    35A      1.487212
      36A      1.580527    37A      1.737116    38A      1.788982
      39A      1.875911    40A      1.911372    41A      2.143314
      42A      2.331167    43A      2.656686    44A      2.902423
      45A      3.030841    46A      3.047614    47A      3.092719
      48A      3.168012    49A      3.225433    50A      3.251329
      51A      3.345076    52A      3.378563    53A      3.407049
      54A      3.636237    55A      3.658812    56A      3.816536
      57A      3.958324    58A      4.048936    59A      4.133533
      60A      4.202399    61A      4.293339    62A      4.557593
      63A      5.028170    64A      5.077921    65A      5.211596
      66A      5.356747    67A      5.524692    68A      5.542248
      69A      5.699422    70A      5.951364    71A      6.403009
      72A      6.925189    73A      7.004553    74A      7.081668
      75A      7.320538    76A      7.449219

    Final Occupation by Irrep:
              A
    DOCC [     8 ]
    SOCC [     1 ]

  @DF-UKS Final Energy:  -115.06584694871796

   => Energetics <=

    Nuclear Repulsion Energy =             35.2750345169613624
    One-Electron Energy =                -226.2098949542692026
    Two-Electron Energy =                  88.1011107790686907
    DFT Exchange-Correlation Energy =     -12.2320972904788210
    Empirical Dispersion Energy =           0.0000000000000000
    VV10 Nonlocal Energy =                  0.0000000000000000
    Total Energy =                       -115.0658469487179616

  UHF NO Occupations:
  HONO-2 :    7  A 1.9996048
  HONO-1 :    8  A 1.9990513
  HONO-0 :    9  A 1.0000000
  LUNO+0 :   10  A 0.0009487
  LUNO+1 :   11  A 0.0003952
  LUNO+2 :   12  A 0.0001980
  LUNO+3 :   13  A 0.0000863

Computation Completed

Properties will be evaluated at   0.000000,   0.000000,   0.000000 [a0]

Properties computed using the SCF density matrix

  Nuclear Dipole Moment: [e a0]
     X:    -1.3438      Y:     0.7951      Z:    -0.2763

  Electronic Dipole Moment: [e a0]
     X:     1.3343      Y:    -0.2432      Z:     0.1928

  Dipole Moment: [e a0]
     X:    -0.0095      Y:     0.5518      Z:    -0.0835     Total:     0.5582

  Dipole Moment: [D]
     X:    -0.0243      Y:     1.4025      Z:    -0.2122     Total:     1.4187

*** tstop() called on n035 at Thu Nov  4 15:13:27 2021
Module time:
	user time   =      38.11 seconds =       0.64 minutes
	system time =       0.28 seconds =       0.00 minutes
	total time  =         39 seconds =       0.65 minutes
Total time:
	user time   =      38.11 seconds =       0.64 minutes
	system time =       0.28 seconds =       0.00 minutes
	total time  =         39 seconds =       0.65 minutes
Grab this energy -115.06584694871796
    Psi4 stopped on: Thursday, 04 November 2021 03:13PM
    Psi4 wall time for execution: 0:00:38.42

*** Psi4 exiting successfully. Buy a developer a beer!
