                               Psi4 1.4a2.dev629

  ==> Input File <==

--------------------------------------------------------------------------
import os
memory 14 GB

molecule {
 C   -1.3786892547    0.0284688222    0.0819791302
 O    1.2083511097   -0.1223095643   -0.0220610911
 H    1.8839103201    1.5581012779    0.1360848922
 H   -2.2733797126    1.7952030436   -0.4193023831
 H   -2.3207374026   -1.7511303294   -0.2657785481
units bohr
0 2
}

basis {

assign 6-31g_2dfp_

[ 6-31g_2dfp_ ]

spherical

!----------------------------------------------------------------------
! Basis Set Exchange
! Version v0.8.13
! https://www.basissetexchange.org
!----------------------------------------------------------------------
!   Basis set: 6-31G(2df,p)
! Description: 6-31G(2df,p)
!        Role: orbital
!     Version: 0  (Data from the original Basis Set Exchange)
!----------------------------------------------------------------------

****
H     0
S    3   1.00
     18.7311370              0.03349460
      2.8253937              0.23472695
      0.6401217              0.81375733
S    1   1.00
      0.1612778              1.00000000
P    1   1.00
      1.5000000              1.0000000
P    1   1.00
      0.3750000              1.0000000
****
B     0
S    6   1.00
   2068.8823000              0.0018663
    310.6495700              0.0142515
     70.6830330              0.0695516
     19.8610800              0.2325729
      6.2993048              0.4670787
      2.1270270              0.3634314
SP   3   1.00
      4.7279710             -0.1303938              0.0745976
      1.1903377             -0.1307889              0.3078467
      0.3594117              1.1309444              0.7434568
SP   1   1.00
      0.1267512              1.0000000              1.0000000
D    1   1.00
      0.8020000              1.0000000
D    1   1.00
      0.2005000              1.0000000
F    1   1.00
      0.5000000              1.0000000
****
C     0
S    6   1.00
   3047.5249000              0.0018347
    457.3695100              0.0140373
    103.9486900              0.0688426
     29.2101550              0.2321844
      9.2866630              0.4679413
      3.1639270              0.3623120
SP   3   1.00
      7.8682724             -0.1193324              0.0689991
      1.8812885             -0.1608542              0.3164240
      0.5442493              1.1434564              0.7443083
SP   1   1.00
      0.1687144              1.0000000              1.0000000
D    1   1.00
      1.2520000              1.0000000
D    1   1.00
      0.3130000              1.0000000
F    1   1.00
      0.8000000              1.0000000
****
N     0
S    6   1.00
   4173.5110000              0.0018348
    627.4579000              0.0139950
    142.9021000              0.0685870
     40.2343300              0.2322410
     12.8202100              0.4690700
      4.3904370              0.3604550
SP   3   1.00
     11.6263580             -0.1149610              0.0675800
      2.7162800             -0.1691180              0.3239070
      0.7722180              1.1458520              0.7408950
SP   1   1.00
      0.2120313              1.0000000              1.0000000
D    1   1.00
      1.8260000              1.0000000
D    1   1.00
      0.4565000              1.0000000
F    1   1.00
      1.0000000              1.0000000
****
O     0
S    6   1.00
   5484.6717000              0.0018311
    825.2349500              0.0139501
    188.0469600              0.0684451
     52.9645000              0.2327143
     16.8975700              0.4701930
      5.7996353              0.3585209
SP   3   1.00
     15.5396160             -0.1107775              0.0708743
      3.5999336             -0.1480263              0.3397528
      1.0137618              1.1307670              0.7271586
SP   1   1.00
      0.2700058              1.0000000              1.0000000
D    1   1.00
      2.5840000              1.0000000
D    1   1.00
      0.6460000              1.0000000
F    1   1.00
      1.4000000              1.0000000
****
F     0
S    6   1.00
   7001.7130900              0.0018196169
   1051.3660900              0.0139160796
    239.2856900              0.0684053245
     67.3974453              0.233185760
     21.5199573              0.471267439
      7.40310130             0.356618546
SP   3   1.00
     20.8479528             -0.108506975            0.0716287243
      4.80830834            -0.146451658            0.3459121030
      1.34406986             1.128688580            0.7224699570
SP   1   1.00
      0.358151393            1.0000000              1.0000000
D    1   1.00
      3.5000000              1.0000000
D    1   1.00
      0.8750000              1.0000000
F    1   1.00
      1.8500000              1.0000000
****
Al     0
S    6   1.00
  13983.1000000              0.00194267
   2098.7500000              0.0148599
    477.7050000              0.0728494
    134.3600000              0.2468300
     42.8709000              0.4872580
     14.5189000              0.3234960
SP   6   1.00
    239.6680000             -0.00292619             0.00460285
     57.4419000             -0.0374080              0.0331990
     18.2859000             -0.1144870              0.1362820
      6.5991400              0.1156350              0.3304760
      2.4904900              0.6125950              0.4491460
      0.9445400              0.3937990              0.2657040
SP   3   1.00
      1.2779000             -0.2276060             -0.0175130
      0.3975900              0.00144583             0.2445330
      0.1600950              1.0927900              0.8049340
SP   1   1.00
      0.0556577              1.0000000              1.0000000
D    1   1.00
      0.6500000              1.0000000
D    1   1.00
      0.1625000              1.0000000
F    1   1.00
      0.2500000              1.0000000
****
Si     0
S    6   1.00
  16115.9000000              0.00195948
   2425.5800000              0.01492880
    553.8670000              0.07284780
    156.3400000              0.24613000
     50.0683000              0.48591400
     17.0178000              0.32500200
SP   6   1.00
    292.7180000             -0.00278094             0.00443826
     69.8731000             -0.03571460             0.03266790
     22.3363000             -0.11498500             0.13472100
      8.1503900              0.09356340             0.32867800
      3.1345800              0.60301700             0.44964000
      1.2254300              0.41895900             0.26137200
SP   3   1.00
      1.7273800             -0.24463000            -0.01779510
      0.5729220              0.00431572             0.25353900
      0.2221920              1.09818000             0.80066900
SP   1   1.00
      0.0778369              1.00000000             1.00000000
D    1   1.00
      0.9000000              1.0000000
D    1   1.00
      0.2250000              1.0000000
F    1   1.00
      0.3200000              1.0000000
****
P     0
S    6   1.00
  19413.3000000              0.0018516
   2909.4200000              0.0142062
    661.3640000              0.0699995
    185.7590000              0.2400790
     59.1943000              0.4847620
     20.0310000              0.3352000
SP   6   1.00
    339.4780000             -0.00278217             0.00456462
     81.0101000             -0.0360499              0.03369360
     25.8780000             -0.1166310              0.13975500
      9.4522100              0.0968328              0.33936200
      3.6656600              0.6144180              0.45092100
      1.4674600              0.4037980              0.23858600
SP   3   1.00
      2.1562300             -0.2529230             -0.01776530
      0.7489970              0.0328517              0.27405800
      0.2831450              1.0812500              0.78542100
SP   1   1.00
      0.0998317              1.0000000              1.00000000
D    1   1.00
      1.1000000              1.0000000
D    1   1.00
      0.2750000              1.0000000
F    1   1.00
      0.4500000              1.0000000
****
S     0
S    6   1.00
  21917.1000000              0.0018690
   3301.4900000              0.0142300
    754.1460000              0.0696960
    212.7110000              0.2384870
     67.9896000              0.4833070
     23.0515000              0.3380740
SP   6   1.00
    423.7350000             -0.0023767              0.0040610
    100.7100000             -0.0316930              0.0306810
     32.1599000             -0.1133170              0.1304520
     11.8079000              0.0560900              0.3272050
      4.6311000              0.5922550              0.4528510
      1.8702500              0.4550060              0.2560420
SP   3   1.00
      2.6158400             -0.2503740             -0.0145110
      0.9221670              0.0669570              0.3102630
      0.3412870              1.0545100              0.7544830
SP   1   1.00
      0.1171670              1.0000000              1.0000000
D    1   1.00
      1.3000000              1.0000000
D    1   1.00
      0.3250000              1.0000000
F    1   1.00
      0.5500000              1.0000000
****
Cl     0
S    6   1.00
  25180.1000000              0.0018330
   3780.3500000              0.0140340
    860.4740000              0.0690970
    242.1450000              0.2374520
     77.3349000              0.4830340
     26.2470000              0.3398560
SP   6   1.00
    491.7650000             -0.0022974              0.0039894
    116.9840000             -0.0307140              0.0303180
     37.4153000             -0.1125280              0.1298800
     13.7834000              0.0450160              0.3279510
      5.4521500              0.5893530              0.4535270
      2.2258800              0.4652060              0.2521540
SP   3   1.00
      3.1864900             -0.2518300             -0.0142990
      1.1442700              0.0615890              0.3235720
      0.4203770              1.0601800              0.7435070
SP   1   1.00
      0.1426570              1.0000000              1.0000000
D    1   1.00
      1.5000000              1.0000000
D    1   1.00
      0.3750000              1.0000000
F    1   1.00
      0.7000000              1.0000000
****
}

set {
reference uhf
freeze_core true
e_convergence 10
d_convergence 10
dft_spherical_points 1202
dft_radial_points 99
}

e = energy('b3lyp')

print_out('Grab this energy {0}'.format(e))
--------------------------------------------------------------------------

    Molecular point group: c1

    Geometry (in Bohr), charge = 0, multiplicity = 2:

       Center              X                  Y                   Z               Mass
    ------------   -----------------  -----------------  -----------------  -----------------
         C           -1.380358829541     0.028468632522     0.079477635317    12.000000000000
         O            1.206681534859    -0.122309753978    -0.024562585983    15.994914619570
         H            1.882240745259     1.558101088222     0.133583397317     1.007825032230
         H           -2.275049287441     1.795202853922    -0.421803877983     1.007825032230
         H           -2.322406977441    -1.751130519078    -0.268280042983     1.007825032230

  Charge       = 0
  Multiplicity = 2
  Basis Set: ANONYMOUSB65DC742
    Blend: 6-31G_2DFP_
  Basis Set: (ANONYMOUSB65DC742 AUX)
    Blend: DEF2-UNIVERSAL-JKFIT

    Orbital Energies [Eh]
    ---------------------

    Alpha Occupied:

       1A    -19.174457     2A    -10.217086     3A     -1.049824
       4A     -0.665275     5A     -0.522342     6A     -0.443575
       7A     -0.392576     8A     -0.351102     9A     -0.170494

    Alpha Virtual:

      10A      0.066391    11A      0.123395    12A      0.176265
      13A      0.227852    14A      0.447612    15A      0.475569
      16A      0.498021    17A      0.514867    18A      0.531848
      19A      0.573332    20A      0.634680    21A      0.663192
      22A      0.703308    23A      0.741671    24A      0.804286
      25A      0.853977    26A      0.929569    27A      0.963762
      28A      0.997972    29A      1.111593    30A      1.151084
      31A      1.206055    32A      1.294270    33A      1.368767
      34A      1.431889    35A      1.475492    36A      1.570315
      37A      1.727051    38A      1.778940    39A      1.857502
      40A      1.903805    41A      2.131682    42A      2.316564
      43A      2.644876    44A      2.879203    45A      3.000838
      46A      3.025052    47A      3.066320    48A      3.112103
      49A      3.194552    50A      3.206236    51A      3.306481
      52A      3.337852    53A      3.369763    54A      3.609167
      55A      3.652875    56A      3.804232    57A      3.952324
      58A      4.039020    59A      4.126144    60A      4.183477
      61A      4.282104    62A      4.549869    63A      5.014478
      64A      5.062291    65A      5.197107    66A      5.340602
      67A      5.508290    68A      5.528233    69A      5.680963
      70A      5.945289    71A      6.395527    72A      6.903631
      73A      6.982088    74A      7.061098    75A      7.316636
      76A      7.443064

    Beta Occupied:

       1A    -19.169089     2A    -10.203983     3A     -1.037459
       4A     -0.638808     5A     -0.512269     6A     -0.434799
       7A     -0.355667     8A     -0.336715

    Beta Virtual:

       9A     -0.015577    10A      0.069186    11A      0.134472
      12A      0.182794    13A      0.239129    14A      0.468497
      15A      0.480487    16A      0.512582    17A      0.532368
      18A      0.576723    19A      0.581017    20A      0.642597
      21A      0.675273    22A      0.723383    23A      0.767052
      24A      0.807137    25A      0.862405    26A      0.939713
      27A      0.974098    28A      1.006499    29A      1.126547
      30A      1.161823    31A      1.218152    32A      1.301993
      33A      1.375762    34A      1.438972    35A      1.485344
      36A      1.579430    37A      1.735714    38A      1.783413
      39A      1.873611    40A      1.910930    41A      2.140930
      42A      2.329431    43A      2.653263    44A      2.901493
      45A      3.029746    46A      3.046182    47A      3.092716
      48A      3.167863    49A      3.224122    50A      3.250319
      51A      3.345518    52A      3.378093    53A      3.406733
      54A      3.635532    55A      3.657759    56A      3.813701
      57A      3.954122    58A      4.044775    59A      4.130218
      60A      4.195731    61A      4.289747    62A      4.551858
      63A      5.019970    64A      5.070867    65A      5.207015
      66A      5.351840    67A      5.522267    68A      5.540895
      69A      5.694858    70A      5.948126    71A      6.399170
      72A      6.924272    73A      7.002714    74A      7.081381
      75A      7.320924    76A      7.446334

    Final Occupation by Irrep:
              A
    DOCC [     8 ]
    SOCC [     1 ]

  @DF-UKS Final Energy:  -115.06587521477768

   => Energetics <=

    Nuclear Repulsion Energy =             35.2094299383028329
    One-Electron Energy =                -226.0879605183339436
    Two-Electron Energy =                  88.0412554487664494
    DFT Exchange-Correlation Energy =     -12.2286000835130171
    Empirical Dispersion Energy =           0.0000000000000000
    VV10 Nonlocal Energy =                  0.0000000000000000
    Total Energy =                       -115.0658752147776767

  UHF NO Occupations:
  HONO-2 :    7  A 1.9996037
  HONO-1 :    8  A 1.9990456
  HONO-0 :    9  A 1.0000000
  LUNO+0 :   10  A 0.0009544
  LUNO+1 :   11  A 0.0003963
  LUNO+2 :   12  A 0.0001998
  LUNO+3 :   13  A 0.0000871

Computation Completed

Properties will be evaluated at   0.000000,   0.000000,   0.000000 [a0]

Properties computed using the SCF density matrix

  Nuclear Dipole Moment: [e a0]
     X:    -1.3439      Y:     0.7945      Z:    -0.2761

  Electronic Dipole Moment: [e a0]
     X:     1.3333      Y:    -0.2428      Z:     0.1931

  Dipole Moment: [e a0]
     X:    -0.0106      Y:     0.5517      Z:    -0.0830     Total:     0.5580

  Dipole Moment: [D]
     X:    -0.0271      Y:     1.4023      Z:    -0.2109     Total:     1.4183

*** tstop() called on n070 at Thu Nov  4 15:13:39 2021
Module time:
	user time   =      32.43 seconds =       0.54 minutes
	system time =       0.45 seconds =       0.01 minutes
	total time  =         32 seconds =       0.53 minutes
Total time:
	user time   =      32.43 seconds =       0.54 minutes
	system time =       0.45 seconds =       0.01 minutes
	total time  =         32 seconds =       0.53 minutes
Grab this energy -115.06587521477768
    Psi4 stopped on: Thursday, 04 November 2021 03:13PM
    Psi4 wall time for execution: 0:00:32.96

*** Psi4 exiting successfully. Buy a developer a beer!
