                               Psi4 1.4a2.dev629

  ==> Input File <==

--------------------------------------------------------------------------
import os
memory 14 GB

molecule {
 X   -1.4143852090   -1.4140419110    0.0000000000
 C    0.0019164431   -0.0000019274   -0.0000000000
 X    1.4140360503   -1.4143910697    0.0000000000
 C   -0.0019921092   -0.0023526615   -2.4757409887
 H   -1.2416471175   -1.2415558400   -3.5235989300
 H    1.2428546942    1.2433533848   -3.5239977398
 C   -0.0019918358    0.0023536478    2.4757409845
 H    1.2430542396   -1.2431511925    3.5240001590
 H   -1.2418451556    1.2413604496    3.5235965151
units bohr
}

basis {

assign 6-31g_2dfp_

[ 6-31g_2dfp_ ]
spherical

!----------------------------------------------------------------------
! Basis Set Exchange
! Version v0.8.13
! https://www.basissetexchange.org
!----------------------------------------------------------------------
!   Basis set: 6-31G(2df,p)
! Description: 6-31G(2df,p)
!        Role: orbital
!     Version: 0  (Data from the original Basis Set Exchange)
!----------------------------------------------------------------------

****
H     0
S    3   1.00
     18.7311370              0.03349460
      2.8253937              0.23472695
      0.6401217              0.81375733
S    1   1.00
      0.1612778              1.00000000
P    1   1.00
      1.5000000              1.0000000
P    1   1.00
      0.3750000              1.0000000
****
C     0
S    6   1.00
   3047.5249000              0.0018347
    457.3695100              0.0140373
    103.9486900              0.0688426
     29.2101550              0.2321844
      9.2866630              0.4679413
      3.1639270              0.3623120
SP   3   1.00
      7.8682724             -0.1193324              0.0689991
      1.8812885             -0.1608542              0.3164240
      0.5442493              1.1434564              0.7443083
SP   1   1.00
      0.1687144              1.0000000              1.0000000
D    1   1.00
      1.2520000              1.0000000
D    1   1.00
      0.3130000              1.0000000
F    1   1.00
      0.8000000              1.0000000
****
}

set {
opt_type min
reference rhf
freeze_core true
e_convergence 10
d_convergence 10
ensure_bt_convergence true
dft_spherical_points 590
dft_radial_points 99
}

e = energy('b3lyp')

print_out('Grab this energy {0}'.format(e))
--------------------------------------------------------------------------

    Molecular point group: c1

    Geometry (in Bohr), charge = 0, multiplicity = 1:

       Center              X                  Y                   Z               Mass
    ------------   -----------------  -----------------  -----------------  -----------------
         C            0.002475367032    -0.000001816535     0.000000001151    12.000000000000
         C           -0.001433185268    -0.002352550635    -2.475740987549    12.000000000000
         H           -1.241088193568    -1.241555729135    -3.523598928849     1.007825032230
         H            1.243413618132     1.243353495665    -3.523997738649     1.007825032230
         C           -0.001432911868     0.002353758665     2.475740985651    12.000000000000
         H            1.243613163532    -1.243151081635     3.524000160151     1.007825032230
         H           -1.241286231668     1.241360560465     3.523596516251     1.007825032230

  Charge       = 0
  Multiplicity = 1
  Basis Set: ANONYMOUS01057FD5
    Blend: 6-31G_2DFP_
  Basis Set: (ANONYMOUS01057FD5 AUX)
    Blend: DEF2-UNIVERSAL-JKFIT

    Orbital Energies [Eh]
    ---------------------

    Doubly Occupied:

       1A    -10.200430     2A    -10.183852     3A    -10.183824
       4A     -0.785759     5A     -0.700384     6A     -0.518951
       7A     -0.446729     8A     -0.441474     9A     -0.441420
      10A     -0.263756    11A     -0.263755

  @DF-RKS Final Energy:  -116.66724042318536

   => Energetics <=

    Nuclear Repulsion Energy =             59.1228028861703621
    One-Electron Energy =                -272.4034315658083756
    Two-Electron Energy =                 110.9490955500241682
    DFT Exchange-Correlation Energy =     -14.3357072935715024
    Empirical Dispersion Energy =           0.0000000000000000
    VV10 Nonlocal Energy =                  0.0000000000000000
    Total Energy =                       -116.6672404231853619

  Dipole Moment: [D]
     X:    -0.0027      Y:     0.0000      Z:    -0.0000     Total:     0.0027

*** Psi4 exiting successfully. Buy a developer a beer!
