                               Psi4 1.4a2.dev629

  ==> Input File <==

--------------------------------------------------------------------------
import os
memory 14 GB

molecule {
 X   -1.4141953224   -1.4142317976    0.0000000000
 C   -0.0007263506   -0.0000002001    0.0000000001
 X    1.4142300094   -1.4141971106    0.0000000000
 C    0.0012413857   -0.0012447851   -2.4826070505
 H   -1.2461146746   -1.2452070802   -3.5328193437
 H    1.2452189680    1.2460890068   -3.5328375519
 C    0.0012415092    0.0012452192    2.4826070501
 H    1.2451993101   -1.2461079785    3.5328379342
 H   -1.2460948348    1.2452276061    3.5328189618
units bohr
}

basis {

assign 6-31g_2dfp_

[ 6-31g_2dfp_ ]
spherical

!----------------------------------------------------------------------
! Basis Set Exchange
! Version v0.8.13
! https://www.basissetexchange.org
!----------------------------------------------------------------------
!   Basis set: 6-31G(2df,p)
! Description: 6-31G(2df,p)
!        Role: orbital
!     Version: 0  (Data from the original Basis Set Exchange)
!----------------------------------------------------------------------

****
H     0
S    3   1.00
     18.7311370              0.03349460
      2.8253937              0.23472695
      0.6401217              0.81375733
S    1   1.00
      0.1612778              1.00000000
P    1   1.00
      1.5000000              1.0000000
P    1   1.00
      0.3750000              1.0000000
****
C     0
S    6   1.00
   3047.5249000              0.0018347
    457.3695100              0.0140373
    103.9486900              0.0688426
     29.2101550              0.2321844
      9.2866630              0.4679413
      3.1639270              0.3623120
SP   3   1.00
      7.8682724             -0.1193324              0.0689991
      1.8812885             -0.1608542              0.3164240
      0.5442493              1.1434564              0.7443083
SP   1   1.00
      0.1687144              1.0000000              1.0000000
D    1   1.00
      1.2520000              1.0000000
D    1   1.00
      0.3130000              1.0000000
F    1   1.00
      0.8000000              1.0000000
****
}

set {
opt_type min
reference rhf
freeze_core true
e_convergence 10
d_convergence 10
ensure_bt_convergence true
dft_spherical_points 590
dft_radial_points 99
}

e = energy('b3lyp')

print_out('Grab this energy {0}'.format(e))
--------------------------------------------------------------------------

    Molecular point group: c1

    Geometry (in Bohr), charge = 0, multiplicity = 1:

       Center              X                  Y                   Z               Mass
    ------------   -----------------  -----------------  -----------------  -----------------
         C           -0.001207805956    -0.000000309374     0.000000000180    12.000000000000
         C            0.000759930344    -0.001244894374    -2.482607050420    12.000000000000
         H           -1.246596129956    -1.245207189474    -3.532819343620     1.007825032230
         H            1.244737512644     1.246088897526    -3.532837551820     1.007825032230
         C            0.000760053844     0.001245109926     2.482607050180    12.000000000000
         H            1.244717854744    -1.246108087774     3.532837934280     1.007825032230
         H           -1.246576290156     1.245227496826     3.532818961880     1.007825032230

  Charge       = 0
  Multiplicity = 1
  Basis Set: ANONYMOUS0BECFCBA
    Blend: 6-31G_2DFP_
  Basis Set: (ANONYMOUS0BECFCBA AUX)
    Blend: DEF2-UNIVERSAL-JKFIT

    Orbital Energies [Eh]
    ---------------------

    Doubly Occupied:

       1A    -10.201586     2A    -10.185143     3A    -10.185114
       4A     -0.784667     5A     -0.699517     6A     -0.518572
       7A     -0.445957     8A     -0.440742     9A     -0.440741
      10A     -0.263416    11A     -0.263416

  @DF-RKS Final Energy:  -116.66709531466002

   => Energetics <=

    Nuclear Repulsion Energy =             58.9642339543493463
    One-Electron Energy =                -272.0939228478088125
    Two-Electron Energy =                 110.7911010703522123
    DFT Exchange-Correlation Energy =     -14.3285074915527506
    Empirical Dispersion Energy =           0.0000000000000000
    VV10 Nonlocal Energy =                  0.0000000000000000
    Total Energy =                       -116.6670953146600169

  Dipole Moment: [D]
     X:    -0.0023      Y:     0.0000      Z:     0.0000     Total:     0.0023

*** Psi4 exiting successfully. Buy a developer a beer!
