                               Psi4 1.4a2.dev629

  ==> Input File <==

--------------------------------------------------------------------------
import os
memory 14 GB

molecule {
 X   -1.4090887513   -1.4193383687    0.0000000000
 C   -0.0007226134    0.0015865622   -0.0000004054
 X    1.4091313402   -1.4192957798   -0.0000000000
 C    0.0028060586    0.0008329875   -2.4817865224
 H   -1.2398948797   -1.2417884249   -3.5280024579
 H    1.2412553772    1.2449047329   -3.5375842821
 C   -0.0003270939    0.0033134896    2.4817877023
 H    1.2389711408   -1.2426919650    3.5280249323
 H   -1.2421305785    1.2440496461    3.5375610332
units bohr
}

basis {

assign 6-31g_2dfp_

[ 6-31g_2dfp_ ]
spherical

!----------------------------------------------------------------------
! Basis Set Exchange
! Version v0.8.13
! https://www.basissetexchange.org
!----------------------------------------------------------------------
!   Basis set: 6-31G(2df,p)
! Description: 6-31G(2df,p)
!        Role: orbital
!     Version: 0  (Data from the original Basis Set Exchange)
!----------------------------------------------------------------------

****
H     0
S    3   1.00
     18.7311370              0.03349460
      2.8253937              0.23472695
      0.6401217              0.81375733
S    1   1.00
      0.1612778              1.00000000
P    1   1.00
      1.5000000              1.0000000
P    1   1.00
      0.3750000              1.0000000
****
C     0
S    6   1.00
   3047.5249000              0.0018347
    457.3695100              0.0140373
    103.9486900              0.0688426
     29.2101550              0.2321844
      9.2866630              0.4679413
      3.1639270              0.3623120
SP   3   1.00
      7.8682724             -0.1193324              0.0689991
      1.8812885             -0.1608542              0.3164240
      0.5442493              1.1434564              0.7443083
SP   1   1.00
      0.1687144              1.0000000              1.0000000
D    1   1.00
      1.2520000              1.0000000
D    1   1.00
      0.3130000              1.0000000
F    1   1.00
      0.8000000              1.0000000
****
}

set {
opt_type min
reference rhf
freeze_core true
e_convergence 10
d_convergence 10
ensure_bt_convergence true
dft_spherical_points 590
dft_radial_points 99
}

e = energy('b3lyp')

print_out('Grab this energy {0}'.format(e))
--------------------------------------------------------------------------

    Molecular point group: c1

    Geometry (in Bohr), charge = 0, multiplicity = 1:

       Center              X                  Y                   Z               Mass
    ------------   -----------------  -----------------  -----------------  -----------------
         C           -0.001203816823    -0.000244641622    -0.000000618070    12.000000000000
         C            0.002324855177    -0.000998216322    -2.481786735070    12.000000000000
         H           -1.240376083123    -1.243619628722    -3.528002670570     1.007825032230
         H            1.240774173777     1.243073529078    -3.537584494770     1.007825032230
         C           -0.000808297323     0.001482285778     2.481787489630    12.000000000000
         H            1.238489937377    -1.244523168822     3.528024719630     1.007825032230
         H           -1.242611781923     1.242218442278     3.537560820530     1.007825032230

  Charge       = 0
  Multiplicity = 1
  Basis Set: ANONYMOUSE6453BFF
    Blend: 6-31G_2DFP_
  Basis Set: (ANONYMOUSE6453BFF AUX)
    Blend: DEF2-UNIVERSAL-JKFIT

    Orbital Energies [Eh]
    ---------------------

    Doubly Occupied:

       1A    -10.201510     2A    -10.184656     3A    -10.184627
       4A     -0.784870     5A     -0.699880     6A     -0.519287
       7A     -0.446532     8A     -0.440992     9A     -0.440912
      10A     -0.263605    11A     -0.263357

  @DF-RKS Final Energy:  -116.66711828075417

   => Energetics <=

    Nuclear Repulsion Energy =             59.0064471557448016
    One-Electron Energy =                -272.1736136923982485
    Two-Electron Energy =                 110.8315153842817153
    DFT Exchange-Correlation Energy =     -14.3314671283824442
    Empirical Dispersion Energy =           0.0000000000000000
    VV10 Nonlocal Energy =                  0.0000000000000000
    Total Energy =                       -116.6671182807541669

  Dipole Moment: [D]
     X:    -0.0023      Y:    -0.0003      Z:     0.0000     Total:     0.0023

*** Psi4 exiting successfully. Buy a developer a beer!
