                               Psi4 1.4a2.dev629

  ==> Input File <==

--------------------------------------------------------------------------
import os
memory 14 GB

molecule {
 X   -1.4135598467   -1.4148672733   -0.0000000000
 C   -0.0019193988    0.0056871710    0.0000035041
 X    1.4139064277   -1.4145206923   -0.0000000000
 C    0.0017774482    0.0030683697   -2.4817811009
 H   -1.2412475023   -1.2462639015   -3.5347334906
 H    1.2389620029    1.2413932436   -3.5308312018
 C    0.0022037361   -0.0016488627    2.4817779766
 H    1.2398440563   -1.2446615450    3.5343327534
 H   -1.2399669235    1.2433863705    3.5312315592
units bohr
}

basis {

assign 6-31g_2dfp_

[ 6-31g_2dfp_ ]
spherical

!----------------------------------------------------------------------
! Basis Set Exchange
! Version v0.8.13
! https://www.basissetexchange.org
!----------------------------------------------------------------------
!   Basis set: 6-31G(2df,p)
! Description: 6-31G(2df,p)
!        Role: orbital
!     Version: 0  (Data from the original Basis Set Exchange)
!----------------------------------------------------------------------

****
H     0
S    3   1.00
     18.7311370              0.03349460
      2.8253937              0.23472695
      0.6401217              0.81375733
S    1   1.00
      0.1612778              1.00000000
P    1   1.00
      1.5000000              1.0000000
P    1   1.00
      0.3750000              1.0000000
****
C     0
S    6   1.00
   3047.5249000              0.0018347
    457.3695100              0.0140373
    103.9486900              0.0688426
     29.2101550              0.2321844
      9.2866630              0.4679413
      3.1639270              0.3623120
SP   3   1.00
      7.8682724             -0.1193324              0.0689991
      1.8812885             -0.1608542              0.3164240
      0.5442493              1.1434564              0.7443083
SP   1   1.00
      0.1687144              1.0000000              1.0000000
D    1   1.00
      1.2520000              1.0000000
D    1   1.00
      0.3130000              1.0000000
F    1   1.00
      0.8000000              1.0000000
****
}

set {
opt_type min
reference rhf
freeze_core true
e_convergence 10
d_convergence 10
ensure_bt_convergence true
dft_spherical_points 590
dft_radial_points 99
}

e = energy('b3lyp')

print_out('Grab this energy {0}'.format(e))
--------------------------------------------------------------------------

    Molecular point group: c1

    Geometry (in Bohr), charge = 0, multiplicity = 1:

       Center              X                  Y                   Z               Mass
    ------------   -----------------  -----------------  -----------------  -----------------
         C           -0.002476817964     0.003711561614     0.000003399811    12.000000000000
         C            0.001220029036     0.001092760314    -2.481781205189    12.000000000000
         H           -1.241804921464    -1.248239510886    -3.534733594889     1.007825032230
         H            1.238404583736     1.239417634214    -3.530831306089     1.007825032230
         C            0.001646316936    -0.003624472086     2.481777872311    12.000000000000
         H            1.239286637136    -1.246637154386     3.534332649111     1.007825032230
         H           -1.240524342664     1.241410761114     3.531231454911     1.007825032230

  Charge       = 0
  Multiplicity = 1
  Basis Set: ANONYMOUSAF21B668
    Blend: 6-31G_2DFP_
  Basis Set: (ANONYMOUSAF21B668 AUX)
    Blend: DEF2-UNIVERSAL-JKFIT

    Orbital Energies [Eh]
    ---------------------

    Doubly Occupied:

       1A    -10.201510     2A    -10.184656     3A    -10.184627
       4A     -0.784871     5A     -0.699880     6A     -0.519294
       7A     -0.446587     8A     -0.440953     9A     -0.440893
      10A     -0.263655    11A     -0.263307

  @DF-RKS Final Energy:  -116.66710502579758

   => Energetics <=

    Nuclear Repulsion Energy =             59.0065236948133034
    One-Electron Energy =                -272.1737306064330255
    Two-Electron Energy =                 110.8315736873464488
    DFT Exchange-Correlation Energy =     -14.3314718015242981
    Empirical Dispersion Energy =           0.0000000000000000
    VV10 Nonlocal Energy =                  0.0000000000000000
    Total Energy =                       -116.6671050257975821

  Dipole Moment: [D]
     X:     0.0027      Y:    -0.0023      Z:     0.0000     Total:     0.0036

*** Psi4 exiting successfully. Buy a developer a beer!
