                               Psi4 1.4a2.dev629

  ==> Input File <==

--------------------------------------------------------------------------
import os
memory 14 GB

molecule {
 X   -1.4106261310   -1.4178009890    0.0000000000
 C    0.0093179744   -0.0000154926   -0.0000000033
 X    1.4178355663   -1.4105915537   -0.0000000000
 C    0.0007632324    0.0028380339   -2.4809529509
 H   -1.2448250874   -1.2343115565   -3.5244667465
 H    1.2358018166    1.2381078827   -3.5409653220
 C    0.0007572460   -0.0028530261    2.4809529419
 H    1.2316965170   -1.2422146048    3.5409574320
 H   -1.2407211342    1.2384141860    3.5244746488
units bohr
}

basis {

assign 6-31g_2dfp_

[ 6-31g_2dfp_ ]
spherical

!----------------------------------------------------------------------
! Basis Set Exchange
! Version v0.8.13
! https://www.basissetexchange.org
!----------------------------------------------------------------------
!   Basis set: 6-31G(2df,p)
! Description: 6-31G(2df,p)
!        Role: orbital
!     Version: 0  (Data from the original Basis Set Exchange)
!----------------------------------------------------------------------

****
H     0
S    3   1.00
     18.7311370              0.03349460
      2.8253937              0.23472695
      0.6401217              0.81375733
S    1   1.00
      0.1612778              1.00000000
P    1   1.00
      1.5000000              1.0000000
P    1   1.00
      0.3750000              1.0000000
****
C     0
S    6   1.00
   3047.5249000              0.0018347
    457.3695100              0.0140373
    103.9486900              0.0688426
     29.2101550              0.2321844
      9.2866630              0.4679413
      3.1639270              0.3623120
SP   3   1.00
      7.8682724             -0.1193324              0.0689991
      1.8812885             -0.1608542              0.3164240
      0.5442493              1.1434564              0.7443083
SP   1   1.00
      0.1687144              1.0000000              1.0000000
D    1   1.00
      1.2520000              1.0000000
D    1   1.00
      0.3130000              1.0000000
F    1   1.00
      0.8000000              1.0000000
****
}

set {
opt_type min
reference rhf
freeze_core true
e_convergence 10
d_convergence 10
ensure_bt_convergence true
dft_spherical_points 590
dft_radial_points 99
}

e = energy('b3lyp')

print_out('Grab this energy {0}'.format(e))
--------------------------------------------------------------------------

    Molecular point group: c1

    Geometry (in Bohr), charge = 0, multiplicity = 1:

       Center              X                  Y                   Z               Mass
    ------------   -----------------  -----------------  -----------------  -----------------
         C            0.006523353193    -0.000006251276     0.000000000077    12.000000000000
         C           -0.002031388807     0.002847275224    -2.480952947523    12.000000000000
         H           -1.247619708607    -1.234302315176    -3.524466743123     1.007825032230
         H            1.233007195393     1.238117124024    -3.540965318623     1.007825032230
         C           -0.002037375207    -0.002843784776     2.480952945277    12.000000000000
         H            1.228901895793    -1.242205363476     3.540957435377     1.007825032230
         H           -1.243515755407     1.238423427324     3.524474652177     1.007825032230

  Charge       = 0
  Multiplicity = 1
  Basis Set: ANONYMOUS54C7C225
    Blend: 6-31G_2DFP_
  Basis Set: (ANONYMOUS54C7C225 AUX)
    Blend: DEF2-UNIVERSAL-JKFIT

    Orbital Energies [Eh]
    ---------------------

    Doubly Occupied:

       1A    -10.201433     2A    -10.184169     3A    -10.184138
       4A     -0.785074     5A     -0.700241     6A     -0.520005
       7A     -0.447106     8A     -0.441164     9A     -0.441163
      10A     -0.263547    11A     -0.263544

  @DF-RKS Final Energy:  -116.66711744236379

   => Energetics <=

    Nuclear Repulsion Energy =             59.0488331588283160
    One-Electron Energy =                -272.2536008144197126
    Two-Electron Energy =                 110.8720849852351478
    DFT Exchange-Correlation Energy =     -14.3344347720075209
    Empirical Dispersion Energy =           0.0000000000000000
    VV10 Nonlocal Energy =                  0.0000000000000000
    Total Energy =                       -116.6671174423637893

  Dipole Moment: [D]
     X:    -0.0051      Y:     0.0000      Z:     0.0000     Total:     0.0051

*** Psi4 exiting successfully. Buy a developer a beer!
