                               Psi4 1.4a2.dev629

  ==> Input File <==

--------------------------------------------------------------------------
import os
memory 14 GB

molecule {
 X   -1.4175915507   -1.4108355693   -0.0000000000
 C   -0.0026341470    0.0000065966    0.0060729288
 X    1.4108253865   -1.4176017335   -0.0000000000
 C    0.0010822550    0.0011060123   -2.4800356444
 H   -1.2389544332   -1.2437057602   -3.5314665401
 H    1.2425795343    1.2455407599   -3.5389130146
 C    0.0010722949   -0.0010930007    2.4835357982
 H    1.2449590722   -1.2402226765    3.5341102057
 H   -1.2413384120    1.2383782513    3.5266962665
units bohr
}

basis {

assign 6-31g_2dfp_

[ 6-31g_2dfp_ ]
spherical

!----------------------------------------------------------------------
! Basis Set Exchange
! Version v0.8.13
! https://www.basissetexchange.org
!----------------------------------------------------------------------
!   Basis set: 6-31G(2df,p)
! Description: 6-31G(2df,p)
!        Role: orbital
!     Version: 0  (Data from the original Basis Set Exchange)
!----------------------------------------------------------------------

****
H     0
S    3   1.00
     18.7311370              0.03349460
      2.8253937              0.23472695
      0.6401217              0.81375733
S    1   1.00
      0.1612778              1.00000000
P    1   1.00
      1.5000000              1.0000000
P    1   1.00
      0.3750000              1.0000000
****
C     0
S    6   1.00
   3047.5249000              0.0018347
    457.3695100              0.0140373
    103.9486900              0.0688426
     29.2101550              0.2321844
      9.2866630              0.4679413
      3.1639270              0.3623120
SP   3   1.00
      7.8682724             -0.1193324              0.0689991
      1.8812885             -0.1608542              0.3164240
      0.5442493              1.1434564              0.7443083
SP   1   1.00
      0.1687144              1.0000000              1.0000000
D    1   1.00
      1.2520000              1.0000000
D    1   1.00
      0.3130000              1.0000000
F    1   1.00
      0.8000000              1.0000000
****
}

set {
opt_type min
reference rhf
freeze_core true
e_convergence 10
d_convergence 10
ensure_bt_convergence true
dft_spherical_points 590
dft_radial_points 99
}

e = energy('b3lyp')

print_out('Grab this energy {0}'.format(e))
--------------------------------------------------------------------------

    Molecular point group: c1

    Geometry (in Bohr), charge = 0, multiplicity = 1:

       Center              X                  Y                   Z               Mass
    ------------   -----------------  -----------------  -----------------  -----------------
         C           -0.002672799115     0.000000956035     0.003444260766    12.000000000000
         C            0.001043602885     0.001100371735    -2.482664312434    12.000000000000
         H           -1.238993085315    -1.243711400765    -3.534095208134     1.007825032230
         H            1.242540882185     1.245535119335    -3.541541682634     1.007825032230
         C            0.001033642785    -0.001098641265     2.480907130166    12.000000000000
         H            1.244920420085    -1.240228317065     3.531481537666     1.007825032230
         H           -1.241377064115     1.238372610735     3.524067598466     1.007825032230

  Charge       = 0
  Multiplicity = 1
  Basis Set: ANONYMOUSFC5DBCCE
    Blend: 6-31G_2DFP_
  Basis Set: (ANONYMOUSFC5DBCCE AUX)
    Blend: DEF2-UNIVERSAL-JKFIT

    Orbital Energies [Eh]
    ---------------------

    Doubly Occupied:

       1A    -10.201510     2A    -10.185103     3A    -10.184179
       4A     -0.784881     5A     -0.699871     6A     -0.519287
       7A     -0.446529     8A     -0.441799     9A     -0.440110
      10A     -0.264017    11A     -0.262946

  @DF-RKS Final Energy:  -116.66709528755658

   => Energetics <=

    Nuclear Repulsion Energy =             59.0065945222376982
    One-Electron Energy =                -272.1738510029952067
    Two-Electron Energy =                 110.8316367657144781
    DFT Exchange-Correlation Energy =     -14.3314755725135381
    Empirical Dispersion Energy =           0.0000000000000000
    VV10 Nonlocal Energy =                  0.0000000000000000
    Total Energy =                       -116.6670952875565774

  Dipole Moment: [D]
     X:     0.0015      Y:    -0.0000      Z:     0.0074     Total:     0.0076

*** Psi4 exiting successfully. Buy a developer a beer!
