                               Psi4 1.4a2.dev629

  ==> Input File <==

--------------------------------------------------------------------------
import os
memory 14 GB

molecule {
 X   -1.4143836409   -1.4140434791    0.0000000000
 C    0.0019215237   -0.0000019304   -0.0000000000
 X    1.4140376071   -1.4143895129    0.0000000000
 C   -0.0019940535   -0.0023540531   -2.4817845365
 H   -1.2412638590   -1.2411687523   -3.5325867852
 H    1.2424692779    1.2429682549   -3.5329883682
 C   -0.0019937774    0.0023550445    2.4817845323
 H    1.2426670420   -1.2427678373    3.5329907841
 H   -1.2414601200    1.2409751457    3.5325843734
units bohr
}

basis {

assign 6-31g_2dfp_

[ 6-31g_2dfp_ ]
spherical

!----------------------------------------------------------------------
! Basis Set Exchange
! Version v0.8.13
! https://www.basissetexchange.org
!----------------------------------------------------------------------
!   Basis set: 6-31G(2df,p)
! Description: 6-31G(2df,p)
!        Role: orbital
!     Version: 0  (Data from the original Basis Set Exchange)
!----------------------------------------------------------------------

****
H     0
S    3   1.00
     18.7311370              0.03349460
      2.8253937              0.23472695
      0.6401217              0.81375733
S    1   1.00
      0.1612778              1.00000000
P    1   1.00
      1.5000000              1.0000000
P    1   1.00
      0.3750000              1.0000000
****
C     0
S    6   1.00
   3047.5249000              0.0018347
    457.3695100              0.0140373
    103.9486900              0.0688426
     29.2101550              0.2321844
      9.2866630              0.4679413
      3.1639270              0.3623120
SP   3   1.00
      7.8682724             -0.1193324              0.0689991
      1.8812885             -0.1608542              0.3164240
      0.5442493              1.1434564              0.7443083
SP   1   1.00
      0.1687144              1.0000000              1.0000000
D    1   1.00
      1.2520000              1.0000000
D    1   1.00
      0.3130000              1.0000000
F    1   1.00
      0.8000000              1.0000000
****
}

set {
opt_type min
reference rhf
freeze_core true
e_convergence 10
d_convergence 10
ensure_bt_convergence true
dft_spherical_points 590
dft_radial_points 99
}

e = energy('b3lyp')

print_out('Grab this energy {0}'.format(e))
--------------------------------------------------------------------------

    Molecular point group: c1

    Geometry (in Bohr), charge = 0, multiplicity = 1:

       Center              X                  Y                   Z               Mass
    ------------   -----------------  -----------------  -----------------  -----------------
         C            0.002480198257    -0.000001820393     0.000000001156    12.000000000000
         C           -0.001435378943    -0.002353943093    -2.481784535344    12.000000000000
         H           -1.240705184443    -1.241168642293    -3.532586784044     1.007825032230
         H            1.243027952457     1.242968364907    -3.532988367044     1.007825032230
         C           -0.001435102843     0.002355154507     2.481784533456    12.000000000000
         H            1.243225716557    -1.242767727293     3.532990785256     1.007825032230
         H           -1.240901445443     1.240975255707     3.532584374556     1.007825032230

  Charge       = 0
  Multiplicity = 1
  Basis Set: ANONYMOUS8DF61069
    Blend: 6-31G_2DFP_
  Basis Set: (ANONYMOUS8DF61069 AUX)
    Blend: DEF2-UNIVERSAL-JKFIT

    Orbital Energies [Eh]
    ---------------------

    Doubly Occupied:

       1A    -10.201510     2A    -10.184657     3A    -10.184627
       4A     -0.784870     5A     -0.699879     6A     -0.519294
       7A     -0.446587     8A     -0.440949     9A     -0.440899
      10A     -0.263482    11A     -0.263480

  @DF-RKS Final Energy:  -116.66711192075462

   => Energetics <=

    Nuclear Repulsion Energy =             59.0064787917106131
    One-Electron Energy =                -272.1736525762582914
    Two-Electron Energy =                 110.8315317318102444
    DFT Exchange-Correlation Energy =     -14.3314698680171730
    Empirical Dispersion Energy =           0.0000000000000000
    VV10 Nonlocal Energy =                  0.0000000000000000
    Total Energy =                       -116.6671119207546212

  Dipole Moment: [D]
     X:    -0.0027      Y:     0.0000      Z:    -0.0000     Total:     0.0027

*** Psi4 exiting successfully. Buy a developer a beer!
