                               Psi4 1.4a2.dev629

  ==> Input File <==

--------------------------------------------------------------------------
import os
memory 14 GB

molecule {
 X   -1.4092835133   -1.4191436067    0.0000000000
 C    0.0019097555    0.0015848355    0.0000071683
 X    1.4089325114   -1.4194946086   -0.0000000000
 C   -0.0004250956   -0.0002851491   -2.4817797690
 H   -1.2387269070   -1.2414449188   -3.5278166911
 H    1.2421984332    1.2454794323   -3.5377659845
 C   -0.0035580974    0.0044321734    2.4817882515
 H    1.2401386993   -1.2430397054    3.5282012276
 H   -1.2411857862    1.2434844274    3.5373657972
units bohr
}

basis {

assign 6-31g_2dfp_

[ 6-31g_2dfp_ ]
spherical

!----------------------------------------------------------------------
! Basis Set Exchange
! Version v0.8.13
! https://www.basissetexchange.org
!----------------------------------------------------------------------
!   Basis set: 6-31G(2df,p)
! Description: 6-31G(2df,p)
!        Role: orbital
!     Version: 0  (Data from the original Basis Set Exchange)
!----------------------------------------------------------------------

****
H     0
S    3   1.00
     18.7311370              0.03349460
      2.8253937              0.23472695
      0.6401217              0.81375733
S    1   1.00
      0.1612778              1.00000000
P    1   1.00
      1.5000000              1.0000000
P    1   1.00
      0.3750000              1.0000000
****
C     0
S    6   1.00
   3047.5249000              0.0018347
    457.3695100              0.0140373
    103.9486900              0.0688426
     29.2101550              0.2321844
      9.2866630              0.4679413
      3.1639270              0.3623120
SP   3   1.00
      7.8682724             -0.1193324              0.0689991
      1.8812885             -0.1608542              0.3164240
      0.5442493              1.1434564              0.7443083
SP   1   1.00
      0.1687144              1.0000000              1.0000000
D    1   1.00
      1.2520000              1.0000000
D    1   1.00
      0.3130000              1.0000000
F    1   1.00
      0.8000000              1.0000000
****
}

set {
opt_type min
reference rhf
freeze_core true
e_convergence 10
d_convergence 10
ensure_bt_convergence true
dft_spherical_points 590
dft_radial_points 99
}

e = energy('b3lyp')

print_out('Grab this energy {0}'.format(e))
--------------------------------------------------------------------------

    Molecular point group: c1

    Geometry (in Bohr), charge = 0, multiplicity = 1:

       Center              X                  Y                   Z               Mass
    ------------   -----------------  -----------------  -----------------  -----------------
         C            0.002470262886    -0.000246146832     0.000002870755    12.000000000000
         C            0.000135411786    -0.002116131432    -2.481784066545    12.000000000000
         H           -1.238166399614    -1.243275901132    -3.527820988645     1.007825032230
         H            1.242758940586     1.243648449968    -3.537770282045     1.007825032230
         C           -0.002997590014     0.002601191068     2.481783953955    12.000000000000
         H            1.240699206686    -1.244870687732     3.528196930055     1.007825032230
         H           -1.240625278814     1.241653445068     3.537361499655     1.007825032230

  Charge       = 0
  Multiplicity = 1
  Basis Set: ANONYMOUSB19D5340
    Blend: 6-31G_2DFP_
  Basis Set: (ANONYMOUSB19D5340 AUX)
    Blend: DEF2-UNIVERSAL-JKFIT

    Orbital Energies [Eh]
    ---------------------

    Doubly Occupied:

       1A    -10.201511     2A    -10.184656     3A    -10.184627
       4A     -0.784871     5A     -0.699880     6A     -0.519293
       7A     -0.446588     8A     -0.440940     9A     -0.440906
      10A     -0.263606    11A     -0.263356

  @DF-RKS Final Energy:  -116.66710767284843

   => Energetics <=

    Nuclear Repulsion Energy =             59.0065018583711733
    One-Electron Energy =                -272.1736902566284471
    Two-Electron Energy =                 110.8315512007045385
    DFT Exchange-Correlation Energy =     -14.3314704752956956
    Empirical Dispersion Energy =           0.0000000000000000
    VV10 Nonlocal Energy =                  0.0000000000000000
    Total Energy =                       -116.6671076728484309

  Dipole Moment: [D]
     X:    -0.0027      Y:    -0.0003      Z:     0.0000     Total:     0.0027

*** Psi4 exiting successfully. Buy a developer a beer!
