                               Psi4 1.4a2.dev629

  ==> Input File <==

--------------------------------------------------------------------------
import os
memory 14 GB

molecule {
 X   -1.4142135600   -1.4142135600   -0.0000000000
 C   -0.0000000000   -0.0000000000    0.0027819140
 X    1.4142135600   -1.4142135600    0.0000000000
 C   -0.0000000000   -0.0000000000   -2.4881342656
 H   -1.2416628494   -1.2416628494   -3.5308916621
 H    1.2416628494    1.2416628494   -3.5308916621
 C   -0.0000000000    0.0000000000    2.4825997733
 H    1.2418746382   -1.2418746382    3.5322679513
 H   -1.2418746382    1.2418746382    3.5322679513
units bohr
}

basis {

assign 6-31g_2dfp_

[ 6-31g_2dfp_ ]
spherical

!----------------------------------------------------------------------
! Basis Set Exchange
! Version v0.8.13
! https://www.basissetexchange.org
!----------------------------------------------------------------------
!   Basis set: 6-31G(2df,p)
! Description: 6-31G(2df,p)
!        Role: orbital
!     Version: 0  (Data from the original Basis Set Exchange)
!----------------------------------------------------------------------

****
H     0
S    3   1.00
     18.7311370              0.03349460
      2.8253937              0.23472695
      0.6401217              0.81375733
S    1   1.00
      0.1612778              1.00000000
P    1   1.00
      1.5000000              1.0000000
P    1   1.00
      0.3750000              1.0000000
****
C     0
S    6   1.00
   3047.5249000              0.0018347
    457.3695100              0.0140373
    103.9486900              0.0688426
     29.2101550              0.2321844
      9.2866630              0.4679413
      3.1639270              0.3623120
SP   3   1.00
      7.8682724             -0.1193324              0.0689991
      1.8812885             -0.1608542              0.3164240
      0.5442493              1.1434564              0.7443083
SP   1   1.00
      0.1687144              1.0000000              1.0000000
D    1   1.00
      1.2520000              1.0000000
D    1   1.00
      0.3130000              1.0000000
F    1   1.00
      0.8000000              1.0000000
****
}

set {
opt_type min
reference rhf
freeze_core true
e_convergence 10
d_convergence 10
ensure_bt_convergence true
dft_spherical_points 590
dft_radial_points 99
}

e = energy('b3lyp')

print_out('Grab this energy {0}'.format(e))
--------------------------------------------------------------------------

    Molecular point group: c2v

    Geometry (in Bohr), charge = 0, multiplicity = 1:

       Center              X                  Y                   Z               Mass
    ------------   -----------------  -----------------  -----------------  -----------------
         C            0.000000000000     0.000000000000     0.003537743116    12.000000000000
         C            0.000000000000     0.000000000000    -2.487378436484    12.000000000000
         H           -1.755976441516    -0.000000000000    -3.530135832984     1.007825032230
         H            1.755976441516     0.000000000000    -3.530135832984     1.007825032230
         C            0.000000000000     0.000000000000     2.483355602416    12.000000000000
         H            0.000000000000    -1.756275956110     3.533023780416     1.007825032230
         H           -0.000000000000     1.756275956110     3.533023780416     1.007825032230

  Charge       = 0
  Multiplicity = 1
  Basis Set: ANONYMOUSBFB6595F
    Blend: 6-31G_2DFP_
  Basis Set: (ANONYMOUSBFB6595F AUX)
    Blend: DEF2-UNIVERSAL-JKFIT

    Orbital Energies [Eh]
    ---------------------

    Doubly Occupied:

       1A1   -10.202008     2A1   -10.184806     3A1   -10.184570
       4A1    -0.784500     5A1    -0.699851     6A1    -0.519345
       7A1    -0.446086     1B1    -0.441508     1B2    -0.441269
       2B1    -0.263991     2B2    -0.262638

  @DF-RKS Final Energy:  -116.66695563037558

   => Energetics <=

    Nuclear Repulsion Energy =             58.9706228117941720
    One-Electron Energy =                -272.1011792719793903
    Two-Electron Energy =                 110.7947207194774677
    DFT Exchange-Correlation Energy =     -14.3311198896678196
    Empirical Dispersion Energy =           0.0000000000000000
    VV10 Nonlocal Energy =                  0.0000000000000000
    Total Energy =                       -116.6669556303755826

  Dipole Moment: [D]
     X:     0.0000      Y:     0.0000      Z:     0.0085     Total:     0.0085

*** Psi4 exiting successfully. Buy a developer a beer!
