                               Psi4 1.4a2.dev629

  ==> Input File <==

--------------------------------------------------------------------------
import os
memory 14 GB

molecule {
 X   -1.4089945186   -1.4194326014    0.0000000000
 C    0.0039764035    0.0000028703    0.0000000086
 X    1.4194482146   -1.4089789054   -0.0000000000
 C   -0.0006128750    0.0025767321   -2.4817831535
 H   -1.2482152961   -1.2366203467   -3.5234970886
 H    1.2416210757    1.2413287641   -3.5420819116
 C   -0.0006213115   -0.0025831323    2.4817831425
 H    1.2356656386   -1.2472866100    3.5420628560
 H   -1.2422673313    1.2425661092    3.5235161466
units bohr
}

basis {

assign 6-31g_2dfp_

[ 6-31g_2dfp_ ]
spherical

!----------------------------------------------------------------------
! Basis Set Exchange
! Version v0.8.13
! https://www.basissetexchange.org
!----------------------------------------------------------------------
!   Basis set: 6-31G(2df,p)
! Description: 6-31G(2df,p)
!        Role: orbital
!     Version: 0  (Data from the original Basis Set Exchange)
!----------------------------------------------------------------------

****
H     0
S    3   1.00
     18.7311370              0.03349460
      2.8253937              0.23472695
      0.6401217              0.81375733
S    1   1.00
      0.1612778              1.00000000
P    1   1.00
      1.5000000              1.0000000
P    1   1.00
      0.3750000              1.0000000
****
C     0
S    6   1.00
   3047.5249000              0.0018347
    457.3695100              0.0140373
    103.9486900              0.0688426
     29.2101550              0.2321844
      9.2866630              0.4679413
      3.1639270              0.3623120
SP   3   1.00
      7.8682724             -0.1193324              0.0689991
      1.8812885             -0.1608542              0.3164240
      0.5442493              1.1434564              0.7443083
SP   1   1.00
      0.1687144              1.0000000              1.0000000
D    1   1.00
      1.2520000              1.0000000
D    1   1.00
      0.3130000              1.0000000
F    1   1.00
      0.8000000              1.0000000
****
}

set {
opt_type min
reference rhf
freeze_core true
e_convergence 10
d_convergence 10
ensure_bt_convergence true
dft_spherical_points 590
dft_radial_points 99
}

e = energy('b3lyp')

print_out('Grab this energy {0}'.format(e))
--------------------------------------------------------------------------

    Molecular point group: c1

    Geometry (in Bohr), charge = 0, multiplicity = 1:

       Center              X                  Y                   Z               Mass
    ------------   -----------------  -----------------  -----------------  -----------------
         C            0.003486600961     0.000004232653     0.000000009259    12.000000000000
         C           -0.001102677539     0.002578094453    -2.481783152841    12.000000000000
         H           -1.248705098639    -1.236618984347    -3.523497087941     1.007825032230
         H            1.241131273161     1.241330126453    -3.542081910941     1.007825032230
         C           -0.001111114039    -0.002581769947     2.481783143159    12.000000000000
         H            1.235175836061    -1.247285247647     3.542062856659     1.007825032230
         H           -1.242757133839     1.242567471553     3.523516147259     1.007825032230

  Charge       = 0
  Multiplicity = 1
  Basis Set: ANONYMOUS7317966E
    Blend: 6-31G_2DFP_
  Basis Set: (ANONYMOUS7317966E AUX)
    Blend: DEF2-UNIVERSAL-JKFIT

    Orbital Energies [Eh]
    ---------------------

    Doubly Occupied:

       1A    -10.201510     2A    -10.184656     3A    -10.184626
       4A     -0.784872     5A     -0.699880     6A     -0.519287
       7A     -0.446530     8A     -0.440954     9A     -0.440953
      10A     -0.263482    11A     -0.263480

  @DF-RKS Final Energy:  -116.66711225012084

   => Energetics <=

    Nuclear Repulsion Energy =             59.0064973536110031
    One-Electron Energy =                -272.1736993807828640
    Two-Electron Energy =                 110.8315585919541491
    DFT Exchange-Correlation Energy =     -14.3314688149031166
    Empirical Dispersion Energy =           0.0000000000000000
    VV10 Nonlocal Energy =                  0.0000000000000000
    Total Energy =                       -116.6671122501208373

  Dipole Moment: [D]
     X:    -0.0031      Y:    -0.0000      Z:     0.0000     Total:     0.0031

*** Psi4 exiting successfully. Buy a developer a beer!
