                               Psi4 1.4a2.dev629

  ==> Input File <==

--------------------------------------------------------------------------
import os
memory 14 GB

molecule {
 X   -1.4211388330   -1.4072882870    0.0000000000
 C   -0.0007374890    0.0082934046   -0.0000013835
 X    1.4211802886   -1.4072468314   -0.0000000000
 C    0.0038416013   -0.0015484775   -2.4817663843
 H   -1.2412195536   -1.2463517536   -3.5252177154
 H    1.2438052548    1.2364407320   -3.5403154621
 C   -0.0013680536    0.0009396786    2.4817763817
 H    1.2403075631   -1.2472530073    3.5252228443
 H   -1.2446707787    1.2355874217    3.5403017194
units bohr
}

basis {

assign 6-31g_2dfp_

[ 6-31g_2dfp_ ]
spherical

!----------------------------------------------------------------------
! Basis Set Exchange
! Version v0.8.13
! https://www.basissetexchange.org
!----------------------------------------------------------------------
!   Basis set: 6-31G(2df,p)
! Description: 6-31G(2df,p)
!        Role: orbital
!     Version: 0  (Data from the original Basis Set Exchange)
!----------------------------------------------------------------------

****
H     0
S    3   1.00
     18.7311370              0.03349460
      2.8253937              0.23472695
      0.6401217              0.81375733
S    1   1.00
      0.1612778              1.00000000
P    1   1.00
      1.5000000              1.0000000
P    1   1.00
      0.3750000              1.0000000
****
C     0
S    6   1.00
   3047.5249000              0.0018347
    457.3695100              0.0140373
    103.9486900              0.0688426
     29.2101550              0.2321844
      9.2866630              0.4679413
      3.1639270              0.3623120
SP   3   1.00
      7.8682724             -0.1193324              0.0689991
      1.8812885             -0.1608542              0.3164240
      0.5442493              1.1434564              0.7443083
SP   1   1.00
      0.1687144              1.0000000              1.0000000
D    1   1.00
      1.2520000              1.0000000
D    1   1.00
      0.3130000              1.0000000
F    1   1.00
      0.8000000              1.0000000
****
}

set {
opt_type min
reference rhf
freeze_core true
e_convergence 10
d_convergence 10
ensure_bt_convergence true
dft_spherical_points 590
dft_radial_points 99
}

e = energy('b3lyp')

print_out('Grab this energy {0}'.format(e))
--------------------------------------------------------------------------

    Molecular point group: c1

    Geometry (in Bohr), charge = 0, multiplicity = 1:

       Center              X                  Y                   Z               Mass
    ------------   -----------------  -----------------  -----------------  -----------------
         C           -0.001213148817     0.006533036505    -0.000003748789    12.000000000000
         C            0.003365941483    -0.003308845595    -2.481768749589    12.000000000000
         H           -1.241695213417    -1.248112121695    -3.525220080689     1.007825032230
         H            1.243329594983     1.234680363905    -3.540317827389     1.007825032230
         C           -0.001843713417    -0.000820689495     2.481774016411    12.000000000000
         H            1.239831903283    -1.249013375395     3.525220479011     1.007825032230
         H           -1.245146438517     1.233827053605     3.540299354111     1.007825032230

  Charge       = 0
  Multiplicity = 1
  Basis Set: ANONYMOUS92EDB1B6
    Blend: 6-31G_2DFP_
  Basis Set: (ANONYMOUS92EDB1B6 AUX)
    Blend: DEF2-UNIVERSAL-JKFIT

    Orbital Energies [Eh]
    ---------------------

    Doubly Occupied:

       1A    -10.201509     2A    -10.184656     3A    -10.184627
       4A     -0.784871     5A     -0.699878     6A     -0.519287
       7A     -0.446531     8A     -0.440968     9A     -0.440937
      10A     -0.263528    11A     -0.263434

  @DF-RKS Final Energy:  -116.66711921172305

   => Energetics <=

    Nuclear Repulsion Energy =             59.0065129326485689
    One-Electron Energy =                -272.1737549571089403
    Two-Electron Energy =                 110.8315900924064152
    DFT Exchange-Correlation Energy =     -14.3314672796691003
    Empirical Dispersion Energy =           0.0000000000000000
    VV10 Nonlocal Energy =                  0.0000000000000000
    Total Energy =                       -116.6671192117230476

  Dipole Moment: [D]
     X:    -0.0022      Y:    -0.0050      Z:    -0.0000     Total:     0.0055

*** Psi4 exiting successfully. Buy a developer a beer!
