                               Psi4 1.4a2.dev629

  ==> Input File <==

--------------------------------------------------------------------------
import os
memory 14 GB

molecule {
 X   -1.4140335141   -1.4143936059   -0.0000000000
 C   -0.0000000000    0.0019531400   -0.0000000000
 X    1.4140335141   -1.4143936059    0.0000000000
 C   -0.0023461682   -0.0019788152   -2.4853628018
 H   -1.2410475183   -1.2410119985   -3.5313759205
 H    1.2428327258    1.2421942896   -3.5317656883
 C    0.0023461682   -0.0019788152    2.4853628018
 H    1.2410475183   -1.2410119985    3.5313759205
 H   -1.2428327258    1.2421942896    3.5317656883
units bohr
}

basis {

assign 6-31g_2dfp_

[ 6-31g_2dfp_ ]
spherical

!----------------------------------------------------------------------
! Basis Set Exchange
! Version v0.8.13
! https://www.basissetexchange.org
!----------------------------------------------------------------------
!   Basis set: 6-31G(2df,p)
! Description: 6-31G(2df,p)
!        Role: orbital
!     Version: 0  (Data from the original Basis Set Exchange)
!----------------------------------------------------------------------

****
H     0
S    3   1.00
     18.7311370              0.03349460
      2.8253937              0.23472695
      0.6401217              0.81375733
S    1   1.00
      0.1612778              1.00000000
P    1   1.00
      1.5000000              1.0000000
P    1   1.00
      0.3750000              1.0000000
****
C     0
S    6   1.00
   3047.5249000              0.0018347
    457.3695100              0.0140373
    103.9486900              0.0688426
     29.2101550              0.2321844
      9.2866630              0.4679413
      3.1639270              0.3623120
SP   3   1.00
      7.8682724             -0.1193324              0.0689991
      1.8812885             -0.1608542              0.3164240
      0.5442493              1.1434564              0.7443083
SP   1   1.00
      0.1687144              1.0000000              1.0000000
D    1   1.00
      1.2520000              1.0000000
D    1   1.00
      0.3130000              1.0000000
F    1   1.00
      0.8000000              1.0000000
****
}

set {
opt_type min
reference rhf
freeze_core true
e_convergence 10
d_convergence 10
ensure_bt_convergence true
dft_spherical_points 590
dft_radial_points 99
}

e = energy('b3lyp')

print_out('Grab this energy {0}'.format(e))
--------------------------------------------------------------------------

    Molecular point group: c2

    Geometry (in Bohr), charge = 0, multiplicity = 1:

       Center              X                  Y                   Z               Mass
    ------------   -----------------  -----------------  -----------------  -----------------
         C           -0.000000000000     0.000000000000     0.002494486386    12.000000000000
         C            0.002346168200    -2.485362801800    -0.001437468814    12.000000000000
         H            1.241047518300    -3.531375920500    -1.240470652114     1.007825032230
         H           -1.242832725800    -3.531765688300     1.242735635986     1.007825032230
         C           -0.002346168200     2.485362801800    -0.001437468814    12.000000000000
         H           -1.241047518300     3.531375920500    -1.240470652114     1.007825032230
         H            1.242832725800     3.531765688300     1.242735635986     1.007825032230

  Charge       = 0
  Multiplicity = 1
  Basis Set: ANONYMOUSD74CB143
    Blend: 6-31G_2DFP_
  Basis Set: (ANONYMOUSD74CB143 AUX)
    Blend: DEF2-UNIVERSAL-JKFIT

    Orbital Energies [Eh]
    ---------------------

    Doubly Occupied:

       1A    -10.202011     2A    -10.184705     1B    -10.184673
       3A     -0.784493     2B     -0.699856     4A     -0.519352
       3B     -0.446156     5A     -0.441378     4B     -0.441327
       6A     -0.263329     5B     -0.263298

  @DF-RKS Final Energy:  -116.66696569098502

   => Energetics <=

    Nuclear Repulsion Energy =             58.9705276843684985
    One-Electron Energy =                -272.1010018737905511
    Two-Electron Energy =                 110.7946211582928555
    DFT Exchange-Correlation Energy =     -14.3311126598558349
    Empirical Dispersion Energy =           0.0000000000000000
    VV10 Nonlocal Energy =                  0.0000000000000000
    Total Energy =                       -116.6669656909850232

  Dipole Moment: [D]
     X:     0.0000      Y:    -0.0000      Z:    -0.0027     Total:     0.0027

*** Psi4 exiting successfully. Buy a developer a beer!
