                               Psi4 1.4a2.dev629

  ==> Input File <==

--------------------------------------------------------------------------
import os
memory 14 GB

molecule {
 X   -1.4137391778   -1.4146879422   -0.0000000000
 C    0.0000000000    0.0056952906    0.0000000000
 X    1.4137391778   -1.4146879422   -0.0000000000
 C   -0.0002159433    0.0007064820   -2.4878272788
 H   -1.2401592536   -1.2450737620   -3.5435325316
 H    1.2390785529    1.2419940169   -3.5400269468
 C    0.0002159433    0.0007064820    2.4878272788
 H    1.2401592536   -1.2450737620    3.5435325316
 H   -1.2390785529    1.2419940169    3.5400269468
units bohr
}

basis {

assign 6-31g_2dfp_

[ 6-31g_2dfp_ ]
spherical

!----------------------------------------------------------------------
! Basis Set Exchange
! Version v0.8.13
! https://www.basissetexchange.org
!----------------------------------------------------------------------
!   Basis set: 6-31G(2df,p)
! Description: 6-31G(2df,p)
!        Role: orbital
!     Version: 0  (Data from the original Basis Set Exchange)
!----------------------------------------------------------------------

****
H     0
S    3   1.00
     18.7311370              0.03349460
      2.8253937              0.23472695
      0.6401217              0.81375733
S    1   1.00
      0.1612778              1.00000000
P    1   1.00
      1.5000000              1.0000000
P    1   1.00
      0.3750000              1.0000000
****
C     0
S    6   1.00
   3047.5249000              0.0018347
    457.3695100              0.0140373
    103.9486900              0.0688426
     29.2101550              0.2321844
      9.2866630              0.4679413
      3.1639270              0.3623120
SP   3   1.00
      7.8682724             -0.1193324              0.0689991
      1.8812885             -0.1608542              0.3164240
      0.5442493              1.1434564              0.7443083
SP   1   1.00
      0.1687144              1.0000000              1.0000000
D    1   1.00
      1.2520000              1.0000000
D    1   1.00
      0.3130000              1.0000000
F    1   1.00
      0.8000000              1.0000000
****
}

set {
opt_type min
reference rhf
freeze_core true
e_convergence 10
d_convergence 10
ensure_bt_convergence true
dft_spherical_points 590
dft_radial_points 99
}

e = energy('b3lyp')

print_out('Grab this energy {0}'.format(e))
--------------------------------------------------------------------------

    Molecular point group: c2

    Geometry (in Bohr), charge = 0, multiplicity = 1:

       Center              X                  Y                   Z               Mass
    ------------   -----------------  -----------------  -----------------  -----------------
         C            0.000000000000     0.000000000000     0.003719552452    12.000000000000
         C            0.000215943300    -2.487827278800    -0.001269256148    12.000000000000
         H            1.240159253600    -3.543532531600    -1.247049500148     1.007825032230
         H           -1.239078552900    -3.540026946800     1.240018278752     1.007825032230
         C           -0.000215943300     2.487827278800    -0.001269256148    12.000000000000
         H           -1.240159253600     3.543532531600    -1.247049500148     1.007825032230
         H            1.239078552900     3.540026946800     1.240018278752     1.007825032230

  Charge       = 0
  Multiplicity = 1
  Basis Set: ANONYMOUSC733D5CB
    Blend: 6-31G_2DFP_
  Basis Set: (ANONYMOUSC733D5CB AUX)
    Blend: DEF2-UNIVERSAL-JKFIT

    Orbital Energies [Eh]
    ---------------------

    Doubly Occupied:

       1A    -10.202586     2A    -10.185458     1B    -10.185426
       3A     -0.783983     2B     -0.699377     4A     -0.519628
       3B     -0.446389     5A     -0.440486     4B     -0.440376
       5B     -0.263379     6A     -0.263035

  @DF-RKS Final Energy:  -116.66693282267147

   => Energetics <=

    Nuclear Repulsion Energy =             58.8906599073876436
    One-Electron Energy =                -271.9447918006353007
    Two-Electron Energy =                 110.7144525252011817
    DFT Exchange-Correlation Energy =     -14.3272534546250068
    Empirical Dispersion Energy =           0.0000000000000000
    VV10 Nonlocal Energy =                  0.0000000000000000
    Total Energy =                       -116.6669328226714697

  Dipole Moment: [D]
     X:     0.0000      Y:     0.0000      Z:    -0.0023     Total:     0.0023

*** Psi4 exiting successfully. Buy a developer a beer!
