                               Psi4 1.4a2.dev629

  ==> Input File <==

--------------------------------------------------------------------------
import os
memory 14 GB

molecule {
 X   -1.4125985990   -1.4158285210   -0.0000000000
 C   -0.0053399221   -0.0000100387    0.0000000015
 X    1.4158355162   -1.4125916038   -0.0000000000
 C   -0.0013778915   -0.0002671474   -2.4782072786
 H   -1.2418641215   -1.2407788923   -3.5330006387
 H    1.2442893630    1.2416837021   -3.5350249490
 C   -0.0013743804    0.0002649061    2.4782072741
 H    1.2424488370   -1.2435239778    3.5350352762
 H   -1.2400188019    1.2426244529    3.5329903144
units bohr
}

basis {

assign 6-31g_2dfp_

[ 6-31g_2dfp_ ]
spherical

!----------------------------------------------------------------------
! Basis Set Exchange
! Version v0.8.13
! https://www.basissetexchange.org
!----------------------------------------------------------------------
!   Basis set: 6-31G(2df,p)
! Description: 6-31G(2df,p)
!        Role: orbital
!     Version: 0  (Data from the original Basis Set Exchange)
!----------------------------------------------------------------------

****
H     0
S    3   1.00
     18.7311370              0.03349460
      2.8253937              0.23472695
      0.6401217              0.81375733
S    1   1.00
      0.1612778              1.00000000
P    1   1.00
      1.5000000              1.0000000
P    1   1.00
      0.3750000              1.0000000
****
C     0
S    6   1.00
   3047.5249000              0.0018347
    457.3695100              0.0140373
    103.9486900              0.0688426
     29.2101550              0.2321844
      9.2866630              0.4679413
      3.1639270              0.3623120
SP   3   1.00
      7.8682724             -0.1193324              0.0689991
      1.8812885             -0.1608542              0.3164240
      0.5442493              1.1434564              0.7443083
SP   1   1.00
      0.1687144              1.0000000              1.0000000
D    1   1.00
      1.2520000              1.0000000
D    1   1.00
      0.3130000              1.0000000
F    1   1.00
      0.8000000              1.0000000
****
}

set {
opt_type min
reference rhf
freeze_core true
e_convergence 10
d_convergence 10
ensure_bt_convergence true
dft_spherical_points 590
dft_radial_points 99
}

e = energy('b3lyp')

print_out('Grab this energy {0}'.format(e))
--------------------------------------------------------------------------

    Molecular point group: c1

    Geometry (in Bohr), charge = 0, multiplicity = 1:

       Center              X                  Y                   Z               Mass
    ------------   -----------------  -----------------  -----------------  -----------------
         C           -0.003036398147    -0.000006490633     0.000000002326    12.000000000000
         C            0.000925632453    -0.000263599333    -2.478207277774    12.000000000000
         H           -1.239560597547    -1.240775344233    -3.533000637874     1.007825032230
         H            1.246592886953     1.241687250167    -3.535024948174     1.007825032230
         C            0.000929143553     0.000268454167     2.478207274926    12.000000000000
         H            1.244752360953    -1.243520429733     3.535035277026     1.007825032230
         H           -1.237715277947     1.242628000967     3.532990315226     1.007825032230

  Charge       = 0
  Multiplicity = 1
  Basis Set: ANONYMOUS1B22504B
    Blend: 6-31G_2DFP_
  Basis Set: (ANONYMOUS1B22504B AUX)
    Blend: DEF2-UNIVERSAL-JKFIT

    Orbital Energies [Eh]
    ---------------------

    Doubly Occupied:

       1A    -10.201007     2A    -10.184608     3A    -10.184579
       4A     -0.785249     5A     -0.699905     6A     -0.519229
       7A     -0.446971     8A     -0.440523     9A     -0.440522
      10A     -0.263649    11A     -0.263648

  @DF-RKS Final Energy:  -116.66723515794138

   => Energetics <=

    Nuclear Repulsion Energy =             59.0425989919243008
    One-Electron Energy =                -272.2465887361973955
    Two-Electron Energy =                 110.8685916961622695
    DFT Exchange-Correlation Energy =     -14.3318371098305519
    Empirical Dispersion Energy =           0.0000000000000000
    VV10 Nonlocal Energy =                  0.0000000000000000
    Total Energy =                       -116.6672351579413771

  Dipole Moment: [D]
     X:     0.0019      Y:     0.0000      Z:     0.0000     Total:     0.0019

*** Psi4 exiting successfully. Buy a developer a beer!
