                               Psi4 1.4a2.dev629

  ==> Input File <==

--------------------------------------------------------------------------
import os
memory 14 GB

molecule {
 X   -1.4142289530   -1.4141981670   -0.0000000000
 C    0.0007297453   -0.0000001984   -0.0000000001
 X    1.4141963640   -1.4142307560   -0.0000000000
 C   -0.0012389357    0.0012431718   -2.4782093668
 H   -1.2416986057   -1.2426019699   -3.5340225574
 H    1.2425888110    1.2417245152   -3.5340077772
 C   -0.0012388134   -0.0012427335    2.4782093672
 H    1.2426074564   -1.2417051794    3.5340081583
 H   -1.2417170689    1.2425841972    3.5340221759
units bohr
}

basis {

assign 6-31g_2dfp_

[ 6-31g_2dfp_ ]
spherical

!----------------------------------------------------------------------
! Basis Set Exchange
! Version v0.8.13
! https://www.basissetexchange.org
!----------------------------------------------------------------------
!   Basis set: 6-31G(2df,p)
! Description: 6-31G(2df,p)
!        Role: orbital
!     Version: 0  (Data from the original Basis Set Exchange)
!----------------------------------------------------------------------

****
H     0
S    3   1.00
     18.7311370              0.03349460
      2.8253937              0.23472695
      0.6401217              0.81375733
S    1   1.00
      0.1612778              1.00000000
P    1   1.00
      1.5000000              1.0000000
P    1   1.00
      0.3750000              1.0000000
****
C     0
S    6   1.00
   3047.5249000              0.0018347
    457.3695100              0.0140373
    103.9486900              0.0688426
     29.2101550              0.2321844
      9.2866630              0.4679413
      3.1639270              0.3623120
SP   3   1.00
      7.8682724             -0.1193324              0.0689991
      1.8812885             -0.1608542              0.3164240
      0.5442493              1.1434564              0.7443083
SP   1   1.00
      0.1687144              1.0000000              1.0000000
D    1   1.00
      1.2520000              1.0000000
D    1   1.00
      0.3130000              1.0000000
F    1   1.00
      0.8000000              1.0000000
****
}

set {
opt_type min
reference rhf
freeze_core true
e_convergence 10
d_convergence 10
ensure_bt_convergence true
dft_spherical_points 590
dft_radial_points 99
}

e = energy('b3lyp')

print_out('Grab this energy {0}'.format(e))
--------------------------------------------------------------------------

    Molecular point group: c1

    Geometry (in Bohr), charge = 0, multiplicity = 1:

       Center              X                  Y                   Z               Mass
    ------------   -----------------  -----------------  -----------------  -----------------
         C            0.001208908343    -0.000000309666    -0.000000000180    12.000000000000
         C           -0.000759772657     0.001243060534    -2.478209366880    12.000000000000
         H           -1.241219442657    -1.242602081166    -3.534022557480     1.007825032230
         H            1.243067974043     1.241724403934    -3.534007777280     1.007825032230
         C           -0.000759650357    -0.001242844766     2.478209367120    12.000000000000
         H            1.243086619443    -1.241705290666     3.534008158220     1.007825032230
         H           -1.241237905857     1.242584085934     3.534022175820     1.007825032230

  Charge       = 0
  Multiplicity = 1
  Basis Set: ANONYMOUS1CA600D5
    Blend: 6-31G_2DFP_
  Basis Set: (ANONYMOUS1CA600D5 AUX)
    Blend: DEF2-UNIVERSAL-JKFIT

    Orbital Energies [Eh]
    ---------------------

    Doubly Occupied:

       1A    -10.201008     2A    -10.184608     3A    -10.184580
       4A     -0.785249     5A     -0.699905     6A     -0.519228
       7A     -0.446970     8A     -0.440523     9A     -0.440523
      10A     -0.263649    11A     -0.263649

  @DF-RKS Final Energy:  -116.66724020056753

   => Energetics <=

    Nuclear Repulsion Energy =             59.0425723731694134
    One-Electron Energy =                -272.2465460710656089
    Two-Electron Energy =                 110.8685687719238331
    DFT Exchange-Correlation Energy =     -14.3318352745951678
    Empirical Dispersion Energy =           0.0000000000000000
    VV10 Nonlocal Energy =                  0.0000000000000000
    Total Energy =                       -116.6672402005675337

  Dipole Moment: [D]
     X:     0.0023      Y:     0.0000      Z:    -0.0000     Total:     0.0023

*** Psi4 exiting successfully. Buy a developer a beer!
