                               Psi4 1.4a2.dev629

  ==> Input File <==

--------------------------------------------------------------------------
import os
memory 14 GB

molecule {
 X   -1.4108282122   -1.4175989078    0.0000000000
 C    0.0026308790    0.0000046794   -0.0000000002
 X    1.4175932132   -1.4108339068    0.0000000000
 C   -0.0010733682   -0.0010939507   -2.4757421753
 H   -1.2460840580   -1.2413440910   -3.5275139820
 H    1.2424619898    1.2395021456   -3.5200951884
 C   -0.0010741707    0.0010970818    2.4757421764
 H    1.2386082597   -1.2433548057    3.5200884063
 H   -1.2422345325    1.2451946351    3.5275207632
units bohr
}

basis {

assign 6-31g_2dfp_

[ 6-31g_2dfp_ ]
spherical

!----------------------------------------------------------------------
! Basis Set Exchange
! Version v0.8.13
! https://www.basissetexchange.org
!----------------------------------------------------------------------
!   Basis set: 6-31G(2df,p)
! Description: 6-31G(2df,p)
!        Role: orbital
!     Version: 0  (Data from the original Basis Set Exchange)
!----------------------------------------------------------------------

****
H     0
S    3   1.00
     18.7311370              0.03349460
      2.8253937              0.23472695
      0.6401217              0.81375733
S    1   1.00
      0.1612778              1.00000000
P    1   1.00
      1.5000000              1.0000000
P    1   1.00
      0.3750000              1.0000000
****
C     0
S    6   1.00
   3047.5249000              0.0018347
    457.3695100              0.0140373
    103.9486900              0.0688426
     29.2101550              0.2321844
      9.2866630              0.4679413
      3.1639270              0.3623120
SP   3   1.00
      7.8682724             -0.1193324              0.0689991
      1.8812885             -0.1608542              0.3164240
      0.5442493              1.1434564              0.7443083
SP   1   1.00
      0.1687144              1.0000000              1.0000000
D    1   1.00
      1.2520000              1.0000000
D    1   1.00
      0.3130000              1.0000000
F    1   1.00
      0.8000000              1.0000000
****
}

set {
opt_type min
reference rhf
freeze_core true
e_convergence 10
d_convergence 10
ensure_bt_convergence true
dft_spherical_points 590
dft_radial_points 99
}

e = energy('b3lyp')

print_out('Grab this energy {0}'.format(e))
--------------------------------------------------------------------------

    Molecular point group: c1

    Geometry (in Bohr), charge = 0, multiplicity = 1:

       Center              X                  Y                   Z               Mass
    ------------   -----------------  -----------------  -----------------  -----------------
         C            0.002668474039     0.000002391354    -0.000000000447    12.000000000000
         C           -0.001035773161    -0.001096238746    -2.475742175547    12.000000000000
         H           -1.246046462961    -1.241346379046    -3.527513982247     1.007825032230
         H            1.242499584839     1.239499857554    -3.520095188647     1.007825032230
         C           -0.001036575661     0.001094793754     2.475742176153    12.000000000000
         H            1.238645854739    -1.243357093746     3.520088406053     1.007825032230
         H           -1.242196937461     1.245192347054     3.527520762953     1.007825032230

  Charge       = 0
  Multiplicity = 1
  Basis Set: ANONYMOUSE463AAA2
    Blend: 6-31G_2DFP_
  Basis Set: (ANONYMOUSE463AAA2 AUX)
    Blend: DEF2-UNIVERSAL-JKFIT

    Orbital Energies [Eh]
    ---------------------

    Doubly Occupied:

       1A    -10.200429     2A    -10.183852     3A    -10.183824
       4A     -0.785759     5A     -0.700384     6A     -0.518944
       7A     -0.446668     8A     -0.441479     9A     -0.441478
      10A     -0.263756    11A     -0.263755

  @DF-RKS Final Energy:  -116.66724494058168

   => Energetics <=

    Nuclear Repulsion Energy =             59.1227799113881360
    One-Electron Energy =                -272.4034086026043155
    Two-Electron Energy =                 110.9490891058917299
    DFT Exchange-Correlation Energy =     -14.3357053552572324
    Empirical Dispersion Energy =           0.0000000000000000
    VV10 Nonlocal Energy =                  0.0000000000000000
    Total Energy =                       -116.6672449405816820

  Dipole Moment: [D]
     X:    -0.0015      Y:    -0.0000      Z:     0.0000     Total:     0.0015

*** Psi4 exiting successfully. Buy a developer a beer!
