                               Psi4 1.4a2.dev629

  ==> Input File <==

--------------------------------------------------------------------------
import os
memory 14 GB

molecule {
 X   -1.4108120583   -1.4176150617    0.0000000000
 C    0.0019040092    0.0000010081   -0.0000000003
 X    1.4176105675   -1.4108165525    0.0000000000
 C    0.0001596414   -0.0023431155   -2.4817870202
 H   -1.2461502425   -1.2405087409   -3.5364988390
 H    1.2416397694    1.2395498383   -3.5290863488
 C    0.0001637700    0.0023414703    2.4817870260
 H    1.2377665731   -1.2434179536    3.5290833834
 H   -1.2422820297    1.2443819874    3.5365017989
units bohr
}

basis {

assign 6-31g_2dfp_

[ 6-31g_2dfp_ ]
spherical

!----------------------------------------------------------------------
! Basis Set Exchange
! Version v0.8.13
! https://www.basissetexchange.org
!----------------------------------------------------------------------
!   Basis set: 6-31G(2df,p)
! Description: 6-31G(2df,p)
!        Role: orbital
!     Version: 0  (Data from the original Basis Set Exchange)
!----------------------------------------------------------------------

****
H     0
S    3   1.00
     18.7311370              0.03349460
      2.8253937              0.23472695
      0.6401217              0.81375733
S    1   1.00
      0.1612778              1.00000000
P    1   1.00
      1.5000000              1.0000000
P    1   1.00
      0.3750000              1.0000000
****
C     0
S    6   1.00
   3047.5249000              0.0018347
    457.3695100              0.0140373
    103.9486900              0.0688426
     29.2101550              0.2321844
      9.2866630              0.4679413
      3.1639270              0.3623120
SP   3   1.00
      7.8682724             -0.1193324              0.0689991
      1.8812885             -0.1608542              0.3164240
      0.5442493              1.1434564              0.7443083
SP   1   1.00
      0.1687144              1.0000000              1.0000000
D    1   1.00
      1.2520000              1.0000000
D    1   1.00
      0.3130000              1.0000000
F    1   1.00
      0.8000000              1.0000000
****
}

set {
opt_type min
reference rhf
freeze_core true
e_convergence 10
d_convergence 10
ensure_bt_convergence true
dft_spherical_points 590
dft_radial_points 99
}

e = energy('b3lyp')

print_out('Grab this energy {0}'.format(e))
--------------------------------------------------------------------------

    Molecular point group: c1

    Geometry (in Bohr), charge = 0, multiplicity = 1:

       Center              X                  Y                   Z               Mass
    ------------   -----------------  -----------------  -----------------  -----------------
         C            0.001463541635     0.000001069898    -0.000000001810    12.000000000000
         C           -0.000280826165    -0.002343053702    -2.481787021710    12.000000000000
         H           -1.246590710065    -1.240508679102    -3.536498840510     1.007825032230
         H            1.241199301835     1.239549900098    -3.529086350310     1.007825032230
         C           -0.000276697565     0.002341532098     2.481787024490    12.000000000000
         H            1.237326105535    -1.243417891802     3.529083381890     1.007825032230
         H           -1.242722497265     1.244382049198     3.536501797390     1.007825032230

  Charge       = 0
  Multiplicity = 1
  Basis Set: ANONYMOUS11FE28F4
    Blend: 6-31G_2DFP_
  Basis Set: (ANONYMOUS11FE28F4 AUX)
    Blend: DEF2-UNIVERSAL-JKFIT

    Orbital Energies [Eh]
    ---------------------

    Doubly Occupied:

       1A    -10.201510     2A    -10.184656     3A    -10.184626
       4A     -0.784871     5A     -0.699880     6A     -0.519287
       7A     -0.446530     8A     -0.440954     9A     -0.440953
      10A     -0.263482    11A     -0.263480

  @DF-RKS Final Energy:  -116.66711658808754

   => Energetics <=

    Nuclear Repulsion Energy =             59.0064518898705899
    One-Electron Energy =                -272.1736192588271024
    Two-Electron Energy =                 110.8315184938068541
    DFT Exchange-Correlation Energy =     -14.3314677129378847
    Empirical Dispersion Energy =           0.0000000000000000
    VV10 Nonlocal Energy =                  0.0000000000000000
    Total Energy =                       -116.6671165880875378

  Dipole Moment: [D]
     X:    -0.0037      Y:     0.0000      Z:     0.0000     Total:     0.0037

*** Psi4 exiting successfully. Buy a developer a beer!
