                               Psi4 1.4a2.dev629

  ==> Input File <==

--------------------------------------------------------------------------
import os
memory 14 GB

molecule {
 X   -1.4140351553   -1.4143919647   -0.0000000000
 C   -0.0019135011   -0.0000019208    0.0000000000
 X    1.4143860771   -1.4140410429   -0.0000000000
 C    0.0019925990    0.0023539655   -2.4782062624
 H   -1.2428584558   -1.2429552955   -3.5342178308
 H    1.2416462592    1.2411596998   -3.5338009962
 C    0.0019928688   -0.0023529796    2.4782062666
 H    1.2414472161   -1.2413560836    3.5338034038
 H   -1.2426579079    1.2431585019    3.5342154190
units bohr
}

basis {

assign 6-31g_2dfp_

[ 6-31g_2dfp_ ]
spherical

!----------------------------------------------------------------------
! Basis Set Exchange
! Version v0.8.13
! https://www.basissetexchange.org
!----------------------------------------------------------------------
!   Basis set: 6-31G(2df,p)
! Description: 6-31G(2df,p)
!        Role: orbital
!     Version: 0  (Data from the original Basis Set Exchange)
!----------------------------------------------------------------------

****
H     0
S    3   1.00
     18.7311370              0.03349460
      2.8253937              0.23472695
      0.6401217              0.81375733
S    1   1.00
      0.1612778              1.00000000
P    1   1.00
      1.5000000              1.0000000
P    1   1.00
      0.3750000              1.0000000
****
C     0
S    6   1.00
   3047.5249000              0.0018347
    457.3695100              0.0140373
    103.9486900              0.0688426
     29.2101550              0.2321844
      9.2866630              0.4679413
      3.1639270              0.3623120
SP   3   1.00
      7.8682724             -0.1193324              0.0689991
      1.8812885             -0.1608542              0.3164240
      0.5442493              1.1434564              0.7443083
SP   1   1.00
      0.1687144              1.0000000              1.0000000
D    1   1.00
      1.2520000              1.0000000
D    1   1.00
      0.3130000              1.0000000
F    1   1.00
      0.8000000              1.0000000
****
}

set {
opt_type min
reference rhf
freeze_core true
e_convergence 10
d_convergence 10
ensure_bt_convergence true
dft_spherical_points 590
dft_radial_points 99
}

e = energy('b3lyp')

print_out('Grab this energy {0}'.format(e))
--------------------------------------------------------------------------

    Molecular point group: c1

    Geometry (in Bohr), charge = 0, multiplicity = 1:

       Center              X                  Y                   Z               Mass
    ------------   -----------------  -----------------  -----------------  -----------------
         C           -0.002473606636    -0.000001812315    -0.000000001153    12.000000000000
         C            0.001432493464     0.002354073985    -2.478206263553    12.000000000000
         H           -1.243418561336    -1.242955187015    -3.534217831953     1.007825032230
         H            1.241086153664     1.241159808285    -3.533800997353     1.007825032230
         C            0.001432763264    -0.002352871115     2.478206265447    12.000000000000
         H            1.240887110564    -1.241355975115     3.533803402647     1.007825032230
         H           -1.243218013436     1.243158610385     3.534215417847     1.007825032230

  Charge       = 0
  Multiplicity = 1
  Basis Set: ANONYMOUSE864DDD9
    Blend: 6-31G_2DFP_
  Basis Set: (ANONYMOUSE864DDD9 AUX)
    Blend: DEF2-UNIVERSAL-JKFIT

    Orbital Energies [Eh]
    ---------------------

    Doubly Occupied:

       1A    -10.201008     2A    -10.184608     3A    -10.184580
       4A     -0.785249     5A     -0.699905     6A     -0.519235
       7A     -0.447019     8A     -0.440519     9A     -0.440476
      10A     -0.263649    11A     -0.263648

  @DF-RKS Final Energy:  -116.66722968231102

   => Energetics <=

    Nuclear Repulsion Energy =             59.0426269601924005
    One-Electron Energy =                -272.2466225826518667
    Two-Electron Energy =                 110.8686045563529063
    DFT Exchange-Correlation Energy =     -14.3318386162044558
    Empirical Dispersion Energy =           0.0000000000000000
    VV10 Nonlocal Energy =                  0.0000000000000000
    Total Energy =                       -116.6672296823110173

  Dipole Moment: [D]
     X:     0.0027      Y:     0.0000      Z:     0.0000     Total:     0.0027

*** Psi4 exiting successfully. Buy a developer a beer!
