                               Psi4 1.4a2.dev629

  ==> Input File <==

--------------------------------------------------------------------------
import os
memory 14 GB

molecule {
 X   -1.4140391605   -1.4143879595   -0.0000000000
 C   -0.0019265938   -0.0000019333    0.0000000000
 X    1.4143820762   -1.4140450438   -0.0000000000
 C    0.0019957177    0.0023564371   -2.4878280802
 H   -1.2422764718   -1.2423811043   -3.5419818987
 H    1.2410717041    1.2405864586   -3.5415726974
 C    0.0019959967   -0.0023554406    2.4878280844
 H    1.2408772163   -1.2407782855    3.5415751060
 H   -1.2420804851    1.2425797513    3.5419794859
units bohr
}

basis {

assign 6-31g_2dfp_

[ 6-31g_2dfp_ ]
spherical

!----------------------------------------------------------------------
! Basis Set Exchange
! Version v0.8.13
! https://www.basissetexchange.org
!----------------------------------------------------------------------
!   Basis set: 6-31G(2df,p)
! Description: 6-31G(2df,p)
!        Role: orbital
!     Version: 0  (Data from the original Basis Set Exchange)
!----------------------------------------------------------------------

****
H     0
S    3   1.00
     18.7311370              0.03349460
      2.8253937              0.23472695
      0.6401217              0.81375733
S    1   1.00
      0.1612778              1.00000000
P    1   1.00
      1.5000000              1.0000000
P    1   1.00
      0.3750000              1.0000000
****
C     0
S    6   1.00
   3047.5249000              0.0018347
    457.3695100              0.0140373
    103.9486900              0.0688426
     29.2101550              0.2321844
      9.2866630              0.4679413
      3.1639270              0.3623120
SP   3   1.00
      7.8682724             -0.1193324              0.0689991
      1.8812885             -0.1608542              0.3164240
      0.5442493              1.1434564              0.7443083
SP   1   1.00
      0.1687144              1.0000000              1.0000000
D    1   1.00
      1.2520000              1.0000000
D    1   1.00
      0.3130000              1.0000000
F    1   1.00
      0.8000000              1.0000000
****
}

set {
opt_type min
reference rhf
freeze_core true
e_convergence 10
d_convergence 10
ensure_bt_convergence true
dft_spherical_points 590
dft_radial_points 99
}

e = energy('b3lyp')

print_out('Grab this energy {0}'.format(e))
--------------------------------------------------------------------------

    Molecular point group: c1

    Geometry (in Bohr), charge = 0, multiplicity = 1:

       Center              X                  Y                   Z               Mass
    ------------   -----------------  -----------------  -----------------  -----------------
         C           -0.002485021022    -0.000001824182    -0.000000001153    12.000000000000
         C            0.001437290478     0.002356546218    -2.487828081353    12.000000000000
         H           -1.242834899022    -1.242380995182    -3.541981899853     1.007825032230
         H            1.240513276878     1.240586567718    -3.541572698553     1.007825032230
         C            0.001437569478    -0.002355331482     2.487828083247    12.000000000000
         H            1.240318789078    -1.240778176382     3.541575104847     1.007825032230
         H           -1.242638912322     1.242579860418     3.541979484747     1.007825032230

  Charge       = 0
  Multiplicity = 1
  Basis Set: ANONYMOUS144DC852
    Blend: 6-31G_2DFP_
  Basis Set: (ANONYMOUS144DC852 AUX)
    Blend: DEF2-UNIVERSAL-JKFIT

    Orbital Energies [Eh]
    ---------------------

    Doubly Occupied:

       1A    -10.202587     2A    -10.185458     3A    -10.185427
       4A     -0.783983     5A     -0.699377     6A     -0.519634
       7A     -0.446442     8A     -0.440427     9A     -0.440380
      10A     -0.263208    11A     -0.263206

  @DF-RKS Final Energy:  -116.66692860421898

   => Energetics <=

    Nuclear Repulsion Energy =             58.8906780057081249
    One-Electron Energy =                -271.9448054074249512
    Two-Electron Energy =                 110.7144537406837657
    DFT Exchange-Correlation Energy =     -14.3272549431859400
    Empirical Dispersion Energy =           0.0000000000000000
    VV10 Nonlocal Energy =                  0.0000000000000000
    Total Energy =                       -116.6669286042189810

  Dipole Moment: [D]
     X:     0.0027      Y:     0.0000      Z:     0.0000     Total:     0.0027

*** Psi4 exiting successfully. Buy a developer a beer!
