                               Psi4 1.4a2.dev629

  ==> Input File <==

--------------------------------------------------------------------------
import os
memory 14 GB

molecule {
 X   -1.4140319257   -1.4143951943   -0.0000000000
 C   -0.0000032231    0.0019454967   -0.0060729333
 X    1.4140274987   -1.4143996213    0.0000000000
 C   -0.0023429695   -0.0019759983   -2.4835346107
 H   -1.2405016427   -1.2404687911   -3.5301984161
 H    1.2422914278    1.2416552333   -3.5305956321
 C    0.0023472714   -0.0019784567    2.4800344530
 H    1.2419763849   -1.2419349335    3.5349820569
 H   -1.2437628218    1.2431251451    3.5353850823
units bohr
}

basis {

assign 6-31g_2dfp_

[ 6-31g_2dfp_ ]
spherical

!----------------------------------------------------------------------
! Basis Set Exchange
! Version v0.8.13
! https://www.basissetexchange.org
!----------------------------------------------------------------------
!   Basis set: 6-31G(2df,p)
! Description: 6-31G(2df,p)
!        Role: orbital
!     Version: 0  (Data from the original Basis Set Exchange)
!----------------------------------------------------------------------

****
H     0
S    3   1.00
     18.7311370              0.03349460
      2.8253937              0.23472695
      0.6401217              0.81375733
S    1   1.00
      0.1612778              1.00000000
P    1   1.00
      1.5000000              1.0000000
P    1   1.00
      0.3750000              1.0000000
****
C     0
S    6   1.00
   3047.5249000              0.0018347
    457.3695100              0.0140373
    103.9486900              0.0688426
     29.2101550              0.2321844
      9.2866630              0.4679413
      3.1639270              0.3623120
SP   3   1.00
      7.8682724             -0.1193324              0.0689991
      1.8812885             -0.1608542              0.3164240
      0.5442493              1.1434564              0.7443083
SP   1   1.00
      0.1687144              1.0000000              1.0000000
D    1   1.00
      1.2520000              1.0000000
D    1   1.00
      0.3130000              1.0000000
F    1   1.00
      0.8000000              1.0000000
****
}

set {
opt_type min
reference rhf
freeze_core true
e_convergence 10
d_convergence 10
ensure_bt_convergence true
dft_spherical_points 590
dft_radial_points 99
}

e = energy('b3lyp')

print_out('Grab this energy {0}'.format(e))
--------------------------------------------------------------------------

    Molecular point group: c1

    Geometry (in Bohr), charge = 0, multiplicity = 1:

       Center              X                  Y                   Z               Mass
    ------------   -----------------  -----------------  -----------------  -----------------
         C           -0.000003630781     0.002487878495    -0.003444262962    12.000000000000
         C           -0.002343377181    -0.001433616505    -2.480905940362    12.000000000000
         H           -1.240502050381    -1.239926409305    -3.527569745762     1.007825032230
         H            1.242291020119     1.242197615095    -3.527966961762     1.007825032230
         C            0.002346863719    -0.001436074905     2.482663123338    12.000000000000
         H            1.241975977219    -1.241392551705     3.537610727238     1.007825032230
         H           -1.243763229481     1.243667526895     3.538013752638     1.007825032230

  Charge       = 0
  Multiplicity = 1
  Basis Set: ANONYMOUS37567CBC
    Blend: 6-31G_2DFP_
  Basis Set: (ANONYMOUS37567CBC AUX)
    Blend: DEF2-UNIVERSAL-JKFIT

    Orbital Energies [Eh]
    ---------------------

    Doubly Occupied:

       1A    -10.201510     2A    -10.185103     3A    -10.184180
       4A     -0.784881     5A     -0.699870     6A     -0.519294
       7A     -0.446586     8A     -0.441765     9A     -0.440085
      10A     -0.264018    11A     -0.262946

  @DF-RKS Final Energy:  -116.66709092957140

   => Energetics <=

    Nuclear Repulsion Energy =             59.0066169447475701
    One-Electron Energy =                -272.1738732300375432
    Two-Electron Energy =                 110.8316428516891818
    DFT Exchange-Correlation Energy =     -14.3314774959706206
    Empirical Dispersion Energy =           0.0000000000000000
    VV10 Nonlocal Energy =                  0.0000000000000000
    Total Energy =                       -116.6670909295714011

  Dipole Moment: [D]
     X:     0.0000      Y:    -0.0027      Z:    -0.0074     Total:     0.0079

*** Psi4 exiting successfully. Buy a developer a beer!
