                               Psi4 1.4a2.dev629

  ==> Input File <==

--------------------------------------------------------------------------
import os
memory 14 GB

molecule {
 X   -1.4154055545   -1.4130215655   -0.0000000000
 C    0.0000023507   -0.0030413475    0.0027798827
 X    1.4154055969   -1.4130215231   -0.0000000000
 C   -0.0003854337   -0.0010899455   -2.4845572217
 H   -1.2396789579   -1.2430320954   -3.5316172880
 H    1.2402917135    1.2444514617   -3.5325936267
 C    0.0003838760   -0.0010931762    2.4790186669
 H    1.2398780403   -1.2432307911    3.5329974266
 H   -1.2404916312    1.2446518627    3.5339721602
units bohr
}

basis {

assign 6-31g_2dfp_

[ 6-31g_2dfp_ ]
spherical

!----------------------------------------------------------------------
! Basis Set Exchange
! Version v0.8.13
! https://www.basissetexchange.org
!----------------------------------------------------------------------
!   Basis set: 6-31G(2df,p)
! Description: 6-31G(2df,p)
!        Role: orbital
!     Version: 0  (Data from the original Basis Set Exchange)
!----------------------------------------------------------------------

****
H     0
S    3   1.00
     18.7311370              0.03349460
      2.8253937              0.23472695
      0.6401217              0.81375733
S    1   1.00
      0.1612778              1.00000000
P    1   1.00
      1.5000000              1.0000000
P    1   1.00
      0.3750000              1.0000000
****
C     0
S    6   1.00
   3047.5249000              0.0018347
    457.3695100              0.0140373
    103.9486900              0.0688426
     29.2101550              0.2321844
      9.2866630              0.4679413
      3.1639270              0.3623120
SP   3   1.00
      7.8682724             -0.1193324              0.0689991
      1.8812885             -0.1608542              0.3164240
      0.5442493              1.1434564              0.7443083
SP   1   1.00
      0.1687144              1.0000000              1.0000000
D    1   1.00
      1.2520000              1.0000000
D    1   1.00
      0.3130000              1.0000000
F    1   1.00
      0.8000000              1.0000000
****
}

set {
opt_type min
reference rhf
freeze_core true
e_convergence 10
d_convergence 10
ensure_bt_convergence true
dft_spherical_points 590
dft_radial_points 99
}

e = energy('b3lyp')

print_out('Grab this energy {0}'.format(e))
--------------------------------------------------------------------------

    Molecular point group: c1

    Geometry (in Bohr), charge = 0, multiplicity = 1:

       Center              X                  Y                   Z               Mass
    ------------   -----------------  -----------------  -----------------  -----------------
         C            0.000002134015    -0.001546742883     0.003537385112    12.000000000000
         C           -0.000385650385     0.000404659117    -2.483799719288    12.000000000000
         H           -1.239679174585    -1.241537490783    -3.530859785588     1.007825032230
         H            1.240291496815     1.245946066317    -3.531836124288     1.007825032230
         C            0.000383659315     0.000401428417     2.479776169312    12.000000000000
         H            1.239877823615    -1.241736186483     3.533754929012     1.007825032230
         H           -1.240491847885     1.246146467317     3.534729662612     1.007825032230

  Charge       = 0
  Multiplicity = 1
  Basis Set: ANONYMOUS2A70467D
    Blend: 6-31G_2DFP_
  Basis Set: (ANONYMOUS2A70467D AUX)
    Blend: DEF2-UNIVERSAL-JKFIT

    Orbital Energies [Eh]
    ---------------------

    Doubly Occupied:

       1A    -10.201507     2A    -10.184760     3A    -10.184521
       4A     -0.784877     5A     -0.699875     6A     -0.519288
       7A     -0.446529     8A     -0.441083     9A     -0.440824
      10A     -0.264180    11A     -0.262784

  @DF-RKS Final Energy:  -116.66709888575065

   => Energetics <=

    Nuclear Repulsion Energy =             59.0065873253011048
    One-Electron Energy =                -272.1738497127388428
    Two-Electron Energy =                 110.8316414652436777
    DFT Exchange-Correlation Energy =     -14.3314779635565781
    Empirical Dispersion Energy =           0.0000000000000000
    VV10 Nonlocal Energy =                  0.0000000000000000
    Total Energy =                       -116.6670988857506472

  Dipole Moment: [D]
     X:     0.0000      Y:     0.0009      Z:     0.0085     Total:     0.0086

*** Psi4 exiting successfully. Buy a developer a beer!
