                               Psi4 1.4a2.dev629

  ==> Input File <==

--------------------------------------------------------------------------
import os
memory 14 GB

molecule {
 X   -1.4158187788   -1.4126083412    0.0000000000
 C    0.0046168953   -0.0000043575   -0.0000000001
 X    1.4126187053   -1.4158084147   -0.0000000000
 C    0.0026127320   -0.0009734912   -2.4817877416
 H   -1.2427193711   -1.2428867973   -3.5337971547
 H    1.2393965277    1.2428607838   -3.5317814090
 C    0.0026129019    0.0009729565    2.4817877384
 H    1.2412200841   -1.2410415730    3.5317861760
 H   -1.2445396963    1.2410621147    3.5337923910
units bohr
}

basis {

assign 6-31g_2dfp_

[ 6-31g_2dfp_ ]
spherical

!----------------------------------------------------------------------
! Basis Set Exchange
! Version v0.8.13
! https://www.basissetexchange.org
!----------------------------------------------------------------------
!   Basis set: 6-31G(2df,p)
! Description: 6-31G(2df,p)
!        Role: orbital
!     Version: 0  (Data from the original Basis Set Exchange)
!----------------------------------------------------------------------

****
H     0
S    3   1.00
     18.7311370              0.03349460
      2.8253937              0.23472695
      0.6401217              0.81375733
S    1   1.00
      0.1612778              1.00000000
P    1   1.00
      1.5000000              1.0000000
P    1   1.00
      0.3750000              1.0000000
****
C     0
S    6   1.00
   3047.5249000              0.0018347
    457.3695100              0.0140373
    103.9486900              0.0688426
     29.2101550              0.2321844
      9.2866630              0.4679413
      3.1639270              0.3623120
SP   3   1.00
      7.8682724             -0.1193324              0.0689991
      1.8812885             -0.1608542              0.3164240
      0.5442493              1.1434564              0.7443083
SP   1   1.00
      0.1687144              1.0000000              1.0000000
D    1   1.00
      1.2520000              1.0000000
D    1   1.00
      0.3130000              1.0000000
F    1   1.00
      0.8000000              1.0000000
****
}

set {
opt_type min
reference rhf
freeze_core true
e_convergence 10
d_convergence 10
ensure_bt_convergence true
dft_spherical_points 590
dft_radial_points 99
}

e = energy('b3lyp')

print_out('Grab this energy {0}'.format(e))
--------------------------------------------------------------------------

    Molecular point group: c1

    Geometry (in Bohr), charge = 0, multiplicity = 1:

       Center              X                  Y                   Z               Mass
    ------------   -----------------  -----------------  -----------------  -----------------
         C            0.001833675244    -0.000002753230     0.000000000806    12.000000000000
         C           -0.000170488056    -0.000971886930    -2.481787740694    12.000000000000
         H           -1.245502591156    -1.242885193030    -3.533797153794     1.007825032230
         H            1.236613307644     1.242862388070    -3.531781408094     1.007825032230
         C           -0.000170318156     0.000974560770     2.481787739306    12.000000000000
         H            1.238436864044    -1.241039968730     3.531786176906     1.007825032230
         H           -1.247322916356     1.241063718970     3.533792391906     1.007825032230

  Charge       = 0
  Multiplicity = 1
  Basis Set: ANONYMOUSE5BF0B74
    Blend: 6-31G_2DFP_
  Basis Set: (ANONYMOUSE5BF0B74 AUX)
    Blend: DEF2-UNIVERSAL-JKFIT

    Orbital Energies [Eh]
    ---------------------

    Doubly Occupied:

       1A    -10.201510     2A    -10.184656     3A    -10.184627
       4A     -0.784870     5A     -0.699879     6A     -0.519288
       7A     -0.446535     8A     -0.440953     9A     -0.440949
      10A     -0.263482    11A     -0.263481

  @DF-RKS Final Energy:  -116.66711736506105

   => Energetics <=

    Nuclear Repulsion Energy =             59.0064468853966630
    One-Electron Energy =                -272.1736078691398575
    Two-Electron Energy =                 110.8315117613815914
    DFT Exchange-Correlation Energy =     -14.3314681426994301
    Empirical Dispersion Energy =           0.0000000000000000
    VV10 Nonlocal Energy =                  0.0000000000000000
    Total Energy =                       -116.6671173650610456

  Dipole Moment: [D]
     X:    -0.0042      Y:    -0.0000      Z:    -0.0000     Total:     0.0042

*** Psi4 exiting successfully. Buy a developer a beer!
