                               Psi4 1.4a2.dev629

  ==> Input File <==

--------------------------------------------------------------------------
import os
memory 14 GB

molecule {
 X   -1.4091120843   -1.4193150357   -0.0000000000
 C   -0.0000052145    0.0015867759    0.0027798867
 X    1.4091098096   -1.4193173104   -0.0000000000
 C    0.0015644195    0.0020692753   -2.4845574713
 H   -1.2393285916   -1.2421380642   -3.5273267120
 H    1.2415946068    1.2443771836   -3.5368868430
 C   -0.0015688584    0.0020767615    2.4790189244
 H    1.2395353780   -1.2423392092    3.5287068474
 H   -1.2417894653    1.2445725033    3.5382653678
units bohr
}

basis {

assign 6-31g_2dfp_

[ 6-31g_2dfp_ ]
spherical

!----------------------------------------------------------------------
! Basis Set Exchange
! Version v0.8.13
! https://www.basissetexchange.org
!----------------------------------------------------------------------
!   Basis set: 6-31G(2df,p)
! Description: 6-31G(2df,p)
!        Role: orbital
!     Version: 0  (Data from the original Basis Set Exchange)
!----------------------------------------------------------------------

****
H     0
S    3   1.00
     18.7311370              0.03349460
      2.8253937              0.23472695
      0.6401217              0.81375733
S    1   1.00
      0.1612778              1.00000000
P    1   1.00
      1.5000000              1.0000000
P    1   1.00
      0.3750000              1.0000000
****
C     0
S    6   1.00
   3047.5249000              0.0018347
    457.3695100              0.0140373
    103.9486900              0.0688426
     29.2101550              0.2321844
      9.2866630              0.4679413
      3.1639270              0.3623120
SP   3   1.00
      7.8682724             -0.1193324              0.0689991
      1.8812885             -0.1608542              0.3164240
      0.5442493              1.1434564              0.7443083
SP   1   1.00
      0.1687144              1.0000000              1.0000000
D    1   1.00
      1.2520000              1.0000000
D    1   1.00
      0.3130000              1.0000000
F    1   1.00
      0.8000000              1.0000000
****
}

set {
opt_type min
reference rhf
freeze_core true
e_convergence 10
d_convergence 10
ensure_bt_convergence true
dft_spherical_points 590
dft_radial_points 99
}

e = energy('b3lyp')

print_out('Grab this energy {0}'.format(e))
--------------------------------------------------------------------------

    Molecular point group: c1

    Geometry (in Bohr), charge = 0, multiplicity = 1:

       Center              X                  Y                   Z               Mass
    ------------   -----------------  -----------------  -----------------  -----------------
         C           -0.000002621040    -0.000244320328     0.003537385844    12.000000000000
         C            0.001567012960     0.000238179072    -2.483799972156    12.000000000000
         H           -1.239325998140    -1.243969160428    -3.526569212856     1.007825032230
         H            1.241597200260     1.242546087372    -3.536129343856     1.007825032230
         C           -0.001566264940     0.000245665272     2.479776423544    12.000000000000
         H            1.239537971460    -1.244170305428     3.529464346544     1.007825032230
         H           -1.241786871840     1.242741407072     3.539022866944     1.007825032230

  Charge       = 0
  Multiplicity = 1
  Basis Set: ANONYMOUSAA0A8C05
    Blend: 6-31G_2DFP_
  Basis Set: (ANONYMOUSAA0A8C05 AUX)
    Blend: DEF2-UNIVERSAL-JKFIT

    Orbital Energies [Eh]
    ---------------------

    Doubly Occupied:

       1A    -10.201508     2A    -10.184760     3A    -10.184521
       4A     -0.784877     5A     -0.699875     6A     -0.519287
       7A     -0.446528     8A     -0.441078     9A     -0.440830
      10A     -0.264171    11A     -0.262793

  @DF-RKS Final Energy:  -116.66709747295690

   => Energetics <=

    Nuclear Repulsion Energy =             59.0065973168235729
    One-Electron Energy =                -272.1738682688663289
    Two-Electron Energy =                 110.8316511966810651
    DFT Exchange-Correlation Energy =     -14.3314777175951882
    Empirical Dispersion Energy =           0.0000000000000000
    VV10 Nonlocal Energy =                  0.0000000000000000
    Total Energy =                       -116.6670974729568968

  Dipole Moment: [D]
     X:     0.0000      Y:    -0.0003      Z:     0.0085     Total:     0.0085

*** Psi4 exiting successfully. Buy a developer a beer!
