                               Psi4 1.4a2.dev629

  ==> Input File <==

--------------------------------------------------------------------------
import os
memory 14 GB

molecule {
 X   -1.4126032006   -1.4158239194   -0.0000000000
 C   -0.0053470261   -0.0000081582   -0.0016349805
 X    1.4158356173   -1.4125915027    0.0000000000
 C   -0.0013770681   -0.0002723344   -2.4826995902
 H   -1.2453179588   -1.2442321551   -3.5309124583
 H    1.2477454244    1.2451346782   -3.5329213010
 C   -0.0013705876    0.0002668283    2.4808714996
 H    1.2386269167   -1.2396922366    3.5346697420
 H   -1.2361921172    1.2387916799    3.5326270884
units bohr
}

basis {

assign 6-31g_2dfp_

[ 6-31g_2dfp_ ]
spherical

!----------------------------------------------------------------------
! Basis Set Exchange
! Version v0.8.13
! https://www.basissetexchange.org
!----------------------------------------------------------------------
!   Basis set: 6-31G(2df,p)
! Description: 6-31G(2df,p)
!        Role: orbital
!     Version: 0  (Data from the original Basis Set Exchange)
!----------------------------------------------------------------------

****
H     0
S    3   1.00
     18.7311370              0.03349460
      2.8253937              0.23472695
      0.6401217              0.81375733
S    1   1.00
      0.1612778              1.00000000
P    1   1.00
      1.5000000              1.0000000
P    1   1.00
      0.3750000              1.0000000
****
C     0
S    6   1.00
   3047.5249000              0.0018347
    457.3695100              0.0140373
    103.9486900              0.0688426
     29.2101550              0.2321844
      9.2866630              0.4679413
      3.1639270              0.3623120
SP   3   1.00
      7.8682724             -0.1193324              0.0689991
      1.8812885             -0.1608542              0.3164240
      0.5442493              1.1434564              0.7443083
SP   1   1.00
      0.1687144              1.0000000              1.0000000
D    1   1.00
      1.2520000              1.0000000
D    1   1.00
      0.3130000              1.0000000
F    1   1.00
      0.8000000              1.0000000
****
}

set {
opt_type min
reference rhf
freeze_core true
e_convergence 10
d_convergence 10
ensure_bt_convergence true
dft_spherical_points 590
dft_radial_points 99
}

e = energy('b3lyp')

print_out('Grab this energy {0}'.format(e))
--------------------------------------------------------------------------

    Molecular point group: c1

    Geometry (in Bohr), charge = 0, multiplicity = 1:

       Center              X                  Y                   Z               Mass
    ------------   -----------------  -----------------  -----------------  -----------------
         C           -0.003042932333    -0.000004111621    -0.000684057514    12.000000000000
         C            0.000927025667    -0.000268287821    -2.481748667214    12.000000000000
         H           -1.243013865033    -1.244228108521    -3.529961535314     1.007825032230
         H            1.250049518167     1.245138724779    -3.531970378014     1.007825032230
         C            0.000933506167     0.000270874879     2.481822422586    12.000000000000
         H            1.240931010467    -1.239688190021     3.535620664986     1.007825032230
         H           -1.233888023433     1.238795726479     3.533578011386     1.007825032230

  Charge       = 0
  Multiplicity = 1
  Basis Set: ANONYMOUS4541DE6D
    Blend: 6-31G_2DFP_
  Basis Set: (ANONYMOUS4541DE6D AUX)
    Blend: DEF2-UNIVERSAL-JKFIT

    Orbital Energies [Eh]
    ---------------------

    Doubly Occupied:

       1A    -10.201510     2A    -10.184968     3A    -10.184314
       4A     -0.784870     5A     -0.699881     6A     -0.519293
       7A     -0.446528     8A     -0.440952     9A     -0.440951
      10A     -0.263597    11A     -0.263365

  @DF-RKS Final Energy:  -116.66710511371575

   => Energetics <=

    Nuclear Repulsion Energy =             59.0065017894580777
    One-Electron Energy =                -272.1736931697323030
    Two-Electron Energy =                 110.8315576613921394
    DFT Exchange-Correlation Energy =     -14.3314713948336596
    Empirical Dispersion Energy =           0.0000000000000000
    VV10 Nonlocal Energy =                  0.0000000000000000
    Total Energy =                       -116.6671051137157491

  Dipole Moment: [D]
     X:     0.0019      Y:     0.0000      Z:     0.0016     Total:     0.0025

*** Psi4 exiting successfully. Buy a developer a beer!
