                               Psi4 1.4a2.dev629

  ==> Input File <==

--------------------------------------------------------------------------
import os
memory 14 GB

molecule {
 X   -1.4178425004   -1.4105846196   -0.0000000000
 C   -0.0093277454   -0.0000154647    0.0000000033
 X    1.4106191358   -1.4178079842    0.0000000000
 C   -0.0007382723   -0.0028549905   -2.4853505513
 H   -1.2351899223   -1.2457221550   -3.5398193856
 H    1.2442074296    1.2419024367   -3.5232778046
 C   -0.0007442437    0.0028400639    2.4853505602
 H    1.2483192923   -1.2377918928    3.5232698573
 H   -1.2393031735    1.2416074862    3.5398273206
units bohr
}

basis {

assign 6-31g_2dfp_

[ 6-31g_2dfp_ ]
spherical

!----------------------------------------------------------------------
! Basis Set Exchange
! Version v0.8.13
! https://www.basissetexchange.org
!----------------------------------------------------------------------
!   Basis set: 6-31G(2df,p)
! Description: 6-31G(2df,p)
!        Role: orbital
!     Version: 0  (Data from the original Basis Set Exchange)
!----------------------------------------------------------------------

****
H     0
S    3   1.00
     18.7311370              0.03349460
      2.8253937              0.23472695
      0.6401217              0.81375733
S    1   1.00
      0.1612778              1.00000000
P    1   1.00
      1.5000000              1.0000000
P    1   1.00
      0.3750000              1.0000000
****
C     0
S    6   1.00
   3047.5249000              0.0018347
    457.3695100              0.0140373
    103.9486900              0.0688426
     29.2101550              0.2321844
      9.2866630              0.4679413
      3.1639270              0.3623120
SP   3   1.00
      7.8682724             -0.1193324              0.0689991
      1.8812885             -0.1608542              0.3164240
      0.5442493              1.1434564              0.7443083
SP   1   1.00
      0.1687144              1.0000000              1.0000000
D    1   1.00
      1.2520000              1.0000000
D    1   1.00
      0.3130000              1.0000000
F    1   1.00
      0.8000000              1.0000000
****
}

set {
opt_type min
reference rhf
freeze_core true
e_convergence 10
d_convergence 10
ensure_bt_convergence true
dft_spherical_points 590
dft_radial_points 99
}

e = energy('b3lyp')

print_out('Grab this energy {0}'.format(e))
--------------------------------------------------------------------------

    Molecular point group: c1

    Geometry (in Bohr), charge = 0, multiplicity = 1:

       Center              X                  Y                   Z               Mass
    ------------   -----------------  -----------------  -----------------  -----------------
         C           -0.006541215943    -0.000006250591    -0.000000000047    12.000000000000
         C            0.002048257157    -0.002845776391    -2.485350554647    12.000000000000
         H           -1.232403392843    -1.245712940891    -3.539819388947     1.007825032230
         H            1.246993959057     1.241911650809    -3.523277807947     1.007825032230
         C            0.002042285757     0.002849278009     2.485350556853    12.000000000000
         H            1.251105821757    -1.237782678691     3.523269853953     1.007825032230
         H           -1.236516644043     1.241616700309     3.539827317253     1.007825032230

  Charge       = 0
  Multiplicity = 1
  Basis Set: ANONYMOUSDB3BFAD3
    Blend: 6-31G_2DFP_
  Basis Set: (ANONYMOUSDB3BFAD3 AUX)
    Blend: DEF2-UNIVERSAL-JKFIT

    Orbital Energies [Eh]
    ---------------------

    Doubly Occupied:

       1A    -10.202010     2A    -10.184705     3A    -10.184673
       4A     -0.784494     5A     -0.699854     6A     -0.519345
       7A     -0.446090     8A     -0.441387     9A     -0.441386
      10A     -0.263314    11A     -0.263312

  @DF-RKS Final Energy:  -116.66697292661068

   => Energetics <=

    Nuclear Repulsion Energy =             58.9705596835145300
    One-Electron Energy =                -272.1010998212570371
    Two-Electron Energy =                 110.7946772309021526
    DFT Exchange-Correlation Energy =     -14.3311100197703194
    Empirical Dispersion Energy =           0.0000000000000000
    VV10 Nonlocal Energy =                  0.0000000000000000
    Total Energy =                       -116.6669729266106827

  Dipole Moment: [D]
     X:     0.0051      Y:     0.0000      Z:    -0.0000     Total:     0.0051

*** Psi4 exiting successfully. Buy a developer a beer!
