                               Psi4 1.4a2.dev629

  ==> Input File <==

--------------------------------------------------------------------------
import os
memory 14 GB

molecule {
 X   -1.4126027192   -1.4158244008   -0.0000000000
 C   -0.0053525217   -0.0000100788    0.0000000015
 X    1.4158314030   -1.4125957170   -0.0000000000
 C   -0.0013740184   -0.0002686222   -2.4878290938
 H   -1.2412825160   -1.2402052211   -3.5407699548
 H    1.2437142983    1.2411100807   -3.5427914121
 C   -0.0013705028    0.0002663929    2.4878290893
 H    1.2418784604   -1.2429456583    3.5428017452
 H   -1.2394418835    1.2420461045    3.5407596248
units bohr
}

basis {

assign 6-31g_2dfp_

[ 6-31g_2dfp_ ]
spherical

!----------------------------------------------------------------------
! Basis Set Exchange
! Version v0.8.13
! https://www.basissetexchange.org
!----------------------------------------------------------------------
!   Basis set: 6-31G(2df,p)
! Description: 6-31G(2df,p)
!        Role: orbital
!     Version: 0  (Data from the original Basis Set Exchange)
!----------------------------------------------------------------------

****
H     0
S    3   1.00
     18.7311370              0.03349460
      2.8253937              0.23472695
      0.6401217              0.81375733
S    1   1.00
      0.1612778              1.00000000
P    1   1.00
      1.5000000              1.0000000
P    1   1.00
      0.3750000              1.0000000
****
C     0
S    6   1.00
   3047.5249000              0.0018347
    457.3695100              0.0140373
    103.9486900              0.0688426
     29.2101550              0.2321844
      9.2866630              0.4679413
      3.1639270              0.3623120
SP   3   1.00
      7.8682724             -0.1193324              0.0689991
      1.8812885             -0.1608542              0.3164240
      0.5442493              1.1434564              0.7443083
SP   1   1.00
      0.1687144              1.0000000              1.0000000
D    1   1.00
      1.2520000              1.0000000
D    1   1.00
      0.3130000              1.0000000
F    1   1.00
      0.8000000              1.0000000
****
}

set {
opt_type min
reference rhf
freeze_core true
e_convergence 10
d_convergence 10
ensure_bt_convergence true
dft_spherical_points 590
dft_radial_points 99
}

e = energy('b3lyp')

print_out('Grab this energy {0}'.format(e))
--------------------------------------------------------------------------

    Molecular point group: c1

    Geometry (in Bohr), charge = 0, multiplicity = 1:

       Center              X                  Y                   Z               Mass
    ------------   -----------------  -----------------  -----------------  -----------------
         C           -0.003047873581    -0.000006522836     0.000000002321    12.000000000000
         C            0.000930629719    -0.000265066236    -2.487829092979    12.000000000000
         H           -1.238977867881    -1.240201665136    -3.540769953979     1.007825032230
         H            1.246018946419     1.241113636664    -3.542791411279     1.007825032230
         C            0.000934145319     0.000269948864     2.487829090121    12.000000000000
         H            1.244183108519    -1.242942102336     3.542801746021     1.007825032230
         H           -1.237137235381     1.242049660464     3.540759625621     1.007825032230

  Charge       = 0
  Multiplicity = 1
  Basis Set: ANONYMOUSADB4251E
    Blend: 6-31G_2DFP_
  Basis Set: (ANONYMOUSADB4251E AUX)
    Blend: DEF2-UNIVERSAL-JKFIT

    Orbital Energies [Eh]
    ---------------------

    Doubly Occupied:

       1A    -10.202586     2A    -10.185458     3A    -10.185426
       4A     -0.783983     5A     -0.699377     6A     -0.519628
       7A     -0.446391     8A     -0.440431     9A     -0.440430
      10A     -0.263207    11A     -0.263207

  @DF-RKS Final Energy:  -116.66693412085850

   => Energetics <=

    Nuclear Repulsion Energy =             58.8906499792075522
    One-Electron Energy =                -271.9447715302288771
    Two-Electron Energy =                 110.7144408706147658
    DFT Exchange-Correlation Energy =     -14.3272534404519369
    Empirical Dispersion Energy =           0.0000000000000000
    VV10 Nonlocal Energy =                  0.0000000000000000
    Total Energy =                       -116.6669341208584996

  Dipole Moment: [D]
     X:     0.0019      Y:     0.0000      Z:     0.0000     Total:     0.0019

*** Psi4 exiting successfully. Buy a developer a beer!
