                               Psi4 1.4a2.dev629

  ==> Input File <==

--------------------------------------------------------------------------
import os
memory 14 GB

molecule {
 X   -1.4193118794   -1.4091152406    0.0000000000
 C   -0.0000052245   -0.0015874982   -0.0027798867
 X    1.4193096032   -1.4091175168    0.0000000000
 C   -0.0015703639   -0.0020740516   -2.4790189241
 H   -1.2445856619   -1.2417741395   -3.5382651237
 H    1.2423328191    1.2395439222   -3.5287070913
 C    0.0015659092   -0.0020665712    2.4845574711
 H    1.2443934081   -1.2415762195    3.5368865785
 H   -1.2421286099    1.2393401953    3.5273269763
units bohr
}

basis {

assign 6-31g_2dfp_

[ 6-31g_2dfp_ ]
spherical

!----------------------------------------------------------------------
! Basis Set Exchange
! Version v0.8.13
! https://www.basissetexchange.org
!----------------------------------------------------------------------
!   Basis set: 6-31G(2df,p)
! Description: 6-31G(2df,p)
!        Role: orbital
!     Version: 0  (Data from the original Basis Set Exchange)
!----------------------------------------------------------------------

****
H     0
S    3   1.00
     18.7311370              0.03349460
      2.8253937              0.23472695
      0.6401217              0.81375733
S    1   1.00
      0.1612778              1.00000000
P    1   1.00
      1.5000000              1.0000000
P    1   1.00
      0.3750000              1.0000000
****
C     0
S    6   1.00
   3047.5249000              0.0018347
    457.3695100              0.0140373
    103.9486900              0.0688426
     29.2101550              0.2321844
      9.2866630              0.4679413
      3.1639270              0.3623120
SP   3   1.00
      7.8682724             -0.1193324              0.0689991
      1.8812885             -0.1608542              0.3164240
      0.5442493              1.1434564              0.7443083
SP   1   1.00
      0.1687144              1.0000000              1.0000000
D    1   1.00
      1.2520000              1.0000000
D    1   1.00
      0.3130000              1.0000000
F    1   1.00
      0.8000000              1.0000000
****
}

set {
opt_type min
reference rhf
freeze_core true
e_convergence 10
d_convergence 10
ensure_bt_convergence true
dft_spherical_points 590
dft_radial_points 99
}

e = energy('b3lyp')

print_out('Grab this energy {0}'.format(e))
--------------------------------------------------------------------------

    Molecular point group: c1

    Geometry (in Bohr), charge = 0, multiplicity = 1:

       Center              X                  Y                   Z               Mass
    ------------   -----------------  -----------------  -----------------  -----------------
         C           -0.000002623999     0.000242036233    -0.003537385874    12.000000000000
         C           -0.001567763399    -0.000244517167    -2.479776423274    12.000000000000
         H           -1.244583061399    -1.239944605067    -3.539022622874     1.007825032230
         H            1.242335419601     1.241373456633    -3.529464590474     1.007825032230
         C            0.001568509701    -0.000237036767     2.483799971926    12.000000000000
         H            1.244396008601    -1.239746685067     3.536129079326     1.007825032230
         H           -1.242126009399     1.241169729733     3.526569477126     1.007825032230

  Charge       = 0
  Multiplicity = 1
  Basis Set: ANONYMOUS90031875
    Blend: 6-31G_2DFP_
  Basis Set: (ANONYMOUS90031875 AUX)
    Blend: DEF2-UNIVERSAL-JKFIT

    Orbital Energies [Eh]
    ---------------------

    Doubly Occupied:

       1A    -10.201508     2A    -10.184760     3A    -10.184521
       4A     -0.784877     5A     -0.699875     6A     -0.519287
       7A     -0.446528     8A     -0.441078     9A     -0.440830
      10A     -0.264171    11A     -0.262793

  @DF-RKS Final Energy:  -116.66709747286886

   => Energetics <=

    Nuclear Repulsion Energy =             59.0065973166285573
    One-Electron Energy =                -272.1738682659122901
    Two-Electron Energy =                 110.8316511937023989
    DFT Exchange-Correlation Energy =     -14.3314777172875321
    Empirical Dispersion Energy =           0.0000000000000000
    VV10 Nonlocal Energy =                  0.0000000000000000
    Total Energy =                       -116.6670974728688606

  Dipole Moment: [D]
     X:     0.0000      Y:     0.0003      Z:    -0.0085     Total:     0.0085

*** Psi4 exiting successfully. Buy a developer a beer!
