                               Psi4 1.4a2.dev629

  ==> Input File <==

--------------------------------------------------------------------------
import os
memory 14 GB

molecule {
 X   -1.4137414825   -1.4146856375   -0.0000000000
 C   -0.0000015874    0.0056890900   -0.0016349814
 X    1.4137306840   -1.4146964360   -0.0000000000
 C   -0.0002101957    0.0007105330   -2.4826977776
 H   -1.2441833468   -1.2491054282   -3.5336648208
 H    1.2431061557    1.2460287663   -3.5301670562
 C    0.0002158212    0.0007079707    2.4808696919
 H    1.2369110583   -1.2418171215    3.5353979420
 H   -1.2358271068    1.2387411433    3.5318970022
units bohr
}

basis {

assign 6-31g_2dfp_

[ 6-31g_2dfp_ ]
spherical

!----------------------------------------------------------------------
! Basis Set Exchange
! Version v0.8.13
! https://www.basissetexchange.org
!----------------------------------------------------------------------
!   Basis set: 6-31G(2df,p)
! Description: 6-31G(2df,p)
!        Role: orbital
!     Version: 0  (Data from the original Basis Set Exchange)
!----------------------------------------------------------------------

****
H     0
S    3   1.00
     18.7311370              0.03349460
      2.8253937              0.23472695
      0.6401217              0.81375733
S    1   1.00
      0.1612778              1.00000000
P    1   1.00
      1.5000000              1.0000000
P    1   1.00
      0.3750000              1.0000000
****
C     0
S    6   1.00
   3047.5249000              0.0018347
    457.3695100              0.0140373
    103.9486900              0.0688426
     29.2101550              0.2321844
      9.2866630              0.4679413
      3.1639270              0.3623120
SP   3   1.00
      7.8682724             -0.1193324              0.0689991
      1.8812885             -0.1608542              0.3164240
      0.5442493              1.1434564              0.7443083
SP   1   1.00
      0.1687144              1.0000000              1.0000000
D    1   1.00
      1.2520000              1.0000000
D    1   1.00
      0.3130000              1.0000000
F    1   1.00
      0.8000000              1.0000000
****
}

set {
opt_type min
reference rhf
freeze_core true
e_convergence 10
d_convergence 10
ensure_bt_convergence true
dft_spherical_points 590
dft_radial_points 99
}

e = energy('b3lyp')

print_out('Grab this energy {0}'.format(e))
--------------------------------------------------------------------------

    Molecular point group: c1

    Geometry (in Bohr), charge = 0, multiplicity = 1:

       Center              X                  Y                   Z               Mass
    ------------   -----------------  -----------------  -----------------  -----------------
         C           -0.000002968082     0.003713377509    -0.000684059515    12.000000000000
         C           -0.000211576382    -0.001265179491    -2.481746855715    12.000000000000
         H           -1.244184727482    -1.251081140691    -3.532713898915     1.007825032230
         H            1.243104775018     1.244053053809    -3.529216134315     1.007825032230
         C            0.000214440518    -0.001267741791     2.481820613785    12.000000000000
         H            1.236909677618    -1.243792833991     3.536348863885     1.007825032230
         H           -1.235828487482     1.236765430809     3.532847924085     1.007825032230

  Charge       = 0
  Multiplicity = 1
  Basis Set: ANONYMOUS8E842CB9
    Blend: 6-31G_2DFP_
  Basis Set: (ANONYMOUS8E842CB9 AUX)
    Blend: DEF2-UNIVERSAL-JKFIT

    Orbital Energies [Eh]
    ---------------------

    Doubly Occupied:

       1A    -10.201509     2A    -10.184968     3A    -10.184314
       4A     -0.784871     5A     -0.699881     6A     -0.519292
       7A     -0.446526     8A     -0.441008     9A     -0.440897
      10A     -0.263689    11A     -0.263272

  @DF-RKS Final Energy:  -116.66710382229728

   => Energetics <=

    Nuclear Repulsion Energy =             59.0065117592636668
    One-Electron Energy =                -272.1737134330355730
    Two-Electron Energy =                 110.8315692677552704
    DFT Exchange-Correlation Energy =     -14.3314714162806442
    Empirical Dispersion Energy =           0.0000000000000000
    VV10 Nonlocal Energy =                  0.0000000000000000
    Total Energy =                       -116.6671038222972783

  Dipole Moment: [D]
     X:    -0.0000      Y:    -0.0023      Z:     0.0016     Total:     0.0028

*** Psi4 exiting successfully. Buy a developer a beer!
