                               Psi4 1.4a2.dev629

  ==> Input File <==

--------------------------------------------------------------------------
import os
memory 14 GB

molecule {
 X   -1.4176596790   -1.4107674410   -0.0000000000
 C   -0.0093174855    0.0019299275   -0.0000082118
 X    1.4104341631   -1.4179929569    0.0000000000
 C   -0.0030945459   -0.0048371681   -2.4817799240
 H   -1.2346576225   -1.2451529772   -3.5408130267
 H    1.2454702840    1.2425304562   -3.5246864579
 C    0.0015897057    0.0008678002    2.4817563329
 H    1.2477938023   -1.2372287430    3.5242944633
 H   -1.2405586222    1.2422239823    3.5412368241
units bohr
}

basis {

assign 6-31g_2dfp_

[ 6-31g_2dfp_ ]
spherical

!----------------------------------------------------------------------
! Basis Set Exchange
! Version v0.8.13
! https://www.basissetexchange.org
!----------------------------------------------------------------------
!   Basis set: 6-31G(2df,p)
! Description: 6-31G(2df,p)
!        Role: orbital
!     Version: 0  (Data from the original Basis Set Exchange)
!----------------------------------------------------------------------

****
H     0
S    3   1.00
     18.7311370              0.03349460
      2.8253937              0.23472695
      0.6401217              0.81375733
S    1   1.00
      0.1612778              1.00000000
P    1   1.00
      1.5000000              1.0000000
P    1   1.00
      0.3750000              1.0000000
****
C     0
S    6   1.00
   3047.5249000              0.0018347
    457.3695100              0.0140373
    103.9486900              0.0688426
     29.2101550              0.2321844
      9.2866630              0.4679413
      3.1639270              0.3623120
SP   3   1.00
      7.8682724             -0.1193324              0.0689991
      1.8812885             -0.1608542              0.3164240
      0.5442493              1.1434564              0.7443083
SP   1   1.00
      0.1687144              1.0000000              1.0000000
D    1   1.00
      1.2520000              1.0000000
D    1   1.00
      0.3130000              1.0000000
F    1   1.00
      0.8000000              1.0000000
****
}

set {
opt_type min
reference rhf
freeze_core true
e_convergence 10
d_convergence 10
ensure_bt_convergence true
dft_spherical_points 590
dft_radial_points 99
}

e = energy('b3lyp')

print_out('Grab this energy {0}'.format(e))
--------------------------------------------------------------------------

    Molecular point group: c1

    Geometry (in Bohr), charge = 0, multiplicity = 1:

       Center              X                  Y                   Z               Mass
    ------------   -----------------  -----------------  -----------------  -----------------
         C           -0.006527697472     0.002481545854     0.000000520945    12.000000000000
         C           -0.000304757872    -0.004285549746    -2.481771191255    12.000000000000
         H           -1.231867834472    -1.244601358846    -3.540804293955     1.007825032230
         H            1.248260072028     1.243082074554    -3.524677725155     1.007825032230
         C            0.004379493728     0.001419418554     2.481765065645    12.000000000000
         H            1.250583590328    -1.236677124646     3.524303196045     1.007825032230
         H           -1.237768834172     1.242775600654     3.541245556845     1.007825032230

  Charge       = 0
  Multiplicity = 1
  Basis Set: ANONYMOUS703AEF62
    Blend: 6-31G_2DFP_
  Basis Set: (ANONYMOUS703AEF62 AUX)
    Blend: DEF2-UNIVERSAL-JKFIT

    Orbital Energies [Eh]
    ---------------------

    Doubly Occupied:

       1A    -10.201510     2A    -10.184657     3A    -10.184627
       4A     -0.784871     5A     -0.699878     6A     -0.519293
       7A     -0.446586     8A     -0.440944     9A     -0.440903
      10A     -0.263497    11A     -0.263464

  @DF-RKS Final Energy:  -116.66710819225503

   => Energetics <=

    Nuclear Repulsion Energy =             59.0065727770969204
    One-Electron Energy =                -272.1738408238934426
    Two-Electron Energy =                 110.8316304286443739
    DFT Exchange-Correlation Energy =     -14.3314705741028749
    Empirical Dispersion Energy =           0.0000000000000000
    VV10 Nonlocal Energy =                  0.0000000000000000
    Total Energy =                       -116.6671081922550286

  Dipole Moment: [D]
     X:     0.0051      Y:    -0.0027      Z:    -0.0001     Total:     0.0057

*** Psi4 exiting successfully. Buy a developer a beer!
