                               Psi4 1.4a2.dev629

  ==> Input File <==

--------------------------------------------------------------------------
import os
memory 14 GB

molecule {
 X   -1.4175943523   -1.4108327677   -0.0000000000
 C   -0.0026373950    0.0000046903    0.0000000002
 X    1.4108270563   -1.4176000637   -0.0000000000
 C    0.0010811782    0.0011050595   -2.4878292673
 H   -1.2378350637   -1.2425827949   -3.5380627199
 H    1.2414587249    1.2444202918   -3.5455043710
 C    0.0010803999   -0.0011018978    2.4878292662
 H    1.2453095545   -1.2405684532    3.5454976067
 H   -1.2416901029    1.2387288158    3.5380694851
units bohr
}

basis {

assign 6-31g_2dfp_

[ 6-31g_2dfp_ ]
spherical

!----------------------------------------------------------------------
! Basis Set Exchange
! Version v0.8.13
! https://www.basissetexchange.org
!----------------------------------------------------------------------
!   Basis set: 6-31G(2df,p)
! Description: 6-31G(2df,p)
!        Role: orbital
!     Version: 0  (Data from the original Basis Set Exchange)
!----------------------------------------------------------------------

****
H     0
S    3   1.00
     18.7311370              0.03349460
      2.8253937              0.23472695
      0.6401217              0.81375733
S    1   1.00
      0.1612778              1.00000000
P    1   1.00
      1.5000000              1.0000000
P    1   1.00
      0.3750000              1.0000000
****
C     0
S    6   1.00
   3047.5249000              0.0018347
    457.3695100              0.0140373
    103.9486900              0.0688426
     29.2101550              0.2321844
      9.2866630              0.4679413
      3.1639270              0.3623120
SP   3   1.00
      7.8682724             -0.1193324              0.0689991
      1.8812885             -0.1608542              0.3164240
      0.5442493              1.1434564              0.7443083
SP   1   1.00
      0.1687144              1.0000000              1.0000000
D    1   1.00
      1.2520000              1.0000000
D    1   1.00
      0.3130000              1.0000000
F    1   1.00
      0.8000000              1.0000000
****
}

set {
opt_type min
reference rhf
freeze_core true
e_convergence 10
d_convergence 10
ensure_bt_convergence true
dft_spherical_points 590
dft_radial_points 99
}

e = energy('b3lyp')

print_out('Grab this energy {0}'.format(e))
--------------------------------------------------------------------------

    Molecular point group: c1

    Geometry (in Bohr), charge = 0, multiplicity = 1:

       Center              X                  Y                   Z               Mass
    ------------   -----------------  -----------------  -----------------  -----------------
         C           -0.002677113610     0.000002390431     0.000000000447    12.000000000000
         C            0.001041459590     0.001102759631    -2.487829267053    12.000000000000
         H           -1.237874782310    -1.242585094769    -3.538062719653     1.007825032230
         H            1.241419006290     1.244417991931    -3.545504370753     1.007825032230
         C            0.001040681290    -0.001104197669     2.487829266447    12.000000000000
         H            1.245269835890    -1.240570753069     3.545497606947     1.007825032230
         H           -1.241729821510     1.238726515931     3.538069485347     1.007825032230

  Charge       = 0
  Multiplicity = 1
  Basis Set: ANONYMOUS842586C0
    Blend: 6-31G_2DFP_
  Basis Set: (ANONYMOUS842586C0 AUX)
    Blend: DEF2-UNIVERSAL-JKFIT

    Orbital Energies [Eh]
    ---------------------

    Doubly Occupied:

       1A    -10.202586     2A    -10.185458     3A    -10.185426
       4A     -0.783983     5A     -0.699377     6A     -0.519627
       7A     -0.446389     8A     -0.440431     9A     -0.440430
      10A     -0.263207    11A     -0.263206

  @DF-RKS Final Energy:  -116.66693310792766

   => Energetics <=

    Nuclear Repulsion Energy =             58.8906550537039379
    One-Electron Energy =                -271.9447825135182484
    Two-Electron Energy =                 110.7144473707123780
    DFT Exchange-Correlation Energy =     -14.3272530188257274
    Empirical Dispersion Energy =           0.0000000000000000
    VV10 Nonlocal Energy =                  0.0000000000000000
    Total Energy =                       -116.6669331079276617

  Dipole Moment: [D]
     X:     0.0015      Y:    -0.0000      Z:    -0.0000     Total:     0.0015

*** Psi4 exiting successfully. Buy a developer a beer!
