                               Psi4 1.4a2.dev629

  ==> Input File <==

--------------------------------------------------------------------------
import os
memory 14 GB

molecule {
 X   -1.4107333448   -1.4176937752    0.0000000000
 C    0.0053305538    0.0015767473   -0.0000005224
 X    1.4074954866   -1.4209316334   -0.0000000000
 C    0.0029373298    0.0023403963   -2.4817879910
 H   -1.2397246099   -1.2436138475   -3.5290365822
 H    1.2395634789    1.2449456127   -3.5365418776
 C   -0.0001924347    0.0018034450    2.4817820619
 H    1.2391482780   -1.2408623136    3.5269960778
 H   -1.2438247375    1.2440082484    3.5385888335
units bohr
}

basis {

assign 6-31g_2dfp_

[ 6-31g_2dfp_ ]
spherical

!----------------------------------------------------------------------
! Basis Set Exchange
! Version v0.8.13
! https://www.basissetexchange.org
!----------------------------------------------------------------------
!   Basis set: 6-31G(2df,p)
! Description: 6-31G(2df,p)
!        Role: orbital
!     Version: 0  (Data from the original Basis Set Exchange)
!----------------------------------------------------------------------

****
H     0
S    3   1.00
     18.7311370              0.03349460
      2.8253937              0.23472695
      0.6401217              0.81375733
S    1   1.00
      0.1612778              1.00000000
P    1   1.00
      1.5000000              1.0000000
P    1   1.00
      0.3750000              1.0000000
****
C     0
S    6   1.00
   3047.5249000              0.0018347
    457.3695100              0.0140373
    103.9486900              0.0688426
     29.2101550              0.2321844
      9.2866630              0.4679413
      3.1639270              0.3623120
SP   3   1.00
      7.8682724             -0.1193324              0.0689991
      1.8812885             -0.1608542              0.3164240
      0.5442493              1.1434564              0.7443083
SP   1   1.00
      0.1687144              1.0000000              1.0000000
D    1   1.00
      1.2520000              1.0000000
D    1   1.00
      0.3130000              1.0000000
F    1   1.00
      0.8000000              1.0000000
****
}

set {
opt_type min
reference rhf
freeze_core true
e_convergence 10
d_convergence 10
ensure_bt_convergence true
dft_spherical_points 590
dft_radial_points 99
}

e = energy('b3lyp')

print_out('Grab this energy {0}'.format(e))
--------------------------------------------------------------------------

    Molecular point group: c1

    Geometry (in Bohr), charge = 0, multiplicity = 1:

       Center              X                  Y                   Z               Mass
    ------------   -----------------  -----------------  -----------------  -----------------
         C            0.003031604186    -0.000250817658     0.000001249114    12.000000000000
         C            0.000638380186     0.000512831342    -2.481786219486    12.000000000000
         H           -1.242023559514    -1.245441412458    -3.529034810686     1.007825032230
         H            1.237264529286     1.243118047742    -3.536540106086     1.007825032230
         C           -0.002491384314    -0.000024119958     2.481783833414    12.000000000000
         H            1.236849328386    -1.242689878558     3.526997849314     1.007825032230
         H           -1.246123687114     1.242180683442     3.538590605014     1.007825032230

  Charge       = 0
  Multiplicity = 1
  Basis Set: ANONYMOUS09065AB4
    Blend: 6-31G_2DFP_
  Basis Set: (ANONYMOUS09065AB4 AUX)
    Blend: DEF2-UNIVERSAL-JKFIT

    Orbital Energies [Eh]
    ---------------------

    Doubly Occupied:

       1A    -10.201510     2A    -10.184656     3A    -10.184626
       4A     -0.784871     5A     -0.699880     6A     -0.519288
       7A     -0.446533     8A     -0.440991     9A     -0.440912
      10A     -0.263605    11A     -0.263357

  @DF-RKS Final Energy:  -116.66711320065843

   => Energetics <=

    Nuclear Repulsion Energy =             59.0064737581097987
    One-Electron Energy =                -272.1736562448982113
    Two-Electron Energy =                 110.8315382521536634
    DFT Exchange-Correlation Energy =     -14.3314689660236816
    Empirical Dispersion Energy =           0.0000000000000000
    VV10 Nonlocal Energy =                  0.0000000000000000
    Total Energy =                       -116.6671132006584344

  Dipole Moment: [D]
     X:    -0.0019      Y:    -0.0002      Z:    -0.0000     Total:     0.0019

*** Psi4 exiting successfully. Buy a developer a beer!
