                               Psi4 1.4a2.dev629

  ==> Input File <==

--------------------------------------------------------------------------
import os
memory 14 GB

molecule {
 X   -1.4144236115   -1.4140035085    0.0000000000
 C    0.0007317818   -0.0019415836    0.0000005293
 X    1.4143812701   -1.4140458499    0.0000000000
 C    0.0011073381    0.0032193460   -2.4817828161
 H   -1.2422374314   -1.2431793745   -3.5329914090
 H    1.2413438068    1.2411064636   -3.5325806925
 C   -0.0035827808    0.0007340258    2.4817840766
 H    1.2431545424   -1.2422771346    3.5329758157
 H   -1.2404749154    1.2419604957    3.5325944961
units bohr
}

basis {

assign 6-31g_2dfp_

[ 6-31g_2dfp_ ]
spherical

!----------------------------------------------------------------------
! Basis Set Exchange
! Version v0.8.13
! https://www.basissetexchange.org
!----------------------------------------------------------------------
!   Basis set: 6-31G(2df,p)
! Description: 6-31G(2df,p)
!        Role: orbital
!     Version: 0  (Data from the original Basis Set Exchange)
!----------------------------------------------------------------------

****
H     0
S    3   1.00
     18.7311370              0.03349460
      2.8253937              0.23472695
      0.6401217              0.81375733
S    1   1.00
      0.1612778              1.00000000
P    1   1.00
      1.5000000              1.0000000
P    1   1.00
      0.3750000              1.0000000
****
C     0
S    6   1.00
   3047.5249000              0.0018347
    457.3695100              0.0140373
    103.9486900              0.0688426
     29.2101550              0.2321844
      9.2866630              0.4679413
      3.1639270              0.3623120
SP   3   1.00
      7.8682724             -0.1193324              0.0689991
      1.8812885             -0.1608542              0.3164240
      0.5442493              1.1434564              0.7443083
SP   1   1.00
      0.1687144              1.0000000              1.0000000
D    1   1.00
      1.2520000              1.0000000
D    1   1.00
      0.3130000              1.0000000
F    1   1.00
      0.8000000              1.0000000
****
}

set {
opt_type min
reference rhf
freeze_core true
e_convergence 10
d_convergence 10
ensure_bt_convergence true
dft_spherical_points 590
dft_radial_points 99
}

e = energy('b3lyp')

print_out('Grab this energy {0}'.format(e))
--------------------------------------------------------------------------

    Molecular point group: c1

    Geometry (in Bohr), charge = 0, multiplicity = 1:

       Center              X                  Y                   Z               Mass
    ------------   -----------------  -----------------  -----------------  -----------------
         C            0.001209506800    -0.002484489032     0.000000037837    12.000000000000
         C            0.001585063100     0.002676440568    -2.481783307563    12.000000000000
         H           -1.241759706400    -1.243722279932    -3.532991900463     1.007825032230
         H            1.241821531800     1.240563558168    -3.532581183963     1.007825032230
         C           -0.003105055800     0.000191120368     2.481783585137    12.000000000000
         H            1.243632267400    -1.242820040032     3.532975324237     1.007825032230
         H           -1.239997190400     1.241417590268     3.532594004637     1.007825032230

  Charge       = 0
  Multiplicity = 1
  Basis Set: ANONYMOUS1DFF9FC9
    Blend: 6-31G_2DFP_
  Basis Set: (ANONYMOUS1DFF9FC9 AUX)
    Blend: DEF2-UNIVERSAL-JKFIT

    Orbital Energies [Eh]
    ---------------------

    Doubly Occupied:

       1A    -10.201510     2A    -10.184657     3A    -10.184627
       4A     -0.784870     5A     -0.699880     6A     -0.519294
       7A     -0.446587     8A     -0.440954     9A     -0.440894
      10A     -0.263495    11A     -0.263467

  @DF-RKS Final Energy:  -116.66711154007122

   => Energetics <=

    Nuclear Repulsion Energy =             59.0064865132291914
    One-Electron Energy =                -272.1736669366674732
    Two-Electron Energy =                 110.8315387892455988
    DFT Exchange-Correlation Energy =     -14.3314699058785369
    Empirical Dispersion Energy =           0.0000000000000000
    VV10 Nonlocal Energy =                  0.0000000000000000
    Total Energy =                       -116.6671115400712182

  Dipole Moment: [D]
     X:     0.0023      Y:     0.0027      Z:    -0.0000     Total:     0.0035

*** Psi4 exiting successfully. Buy a developer a beer!
