                               Psi4 1.4a2.dev629

  ==> Input File <==

--------------------------------------------------------------------------
import os
memory 14 GB

molecule {
 X   -1.4171151945   -1.4113119255   -0.0000000000
 C   -0.0026221608    0.0056937688   -0.0000001321
 X    1.4103512634   -1.4180758566   -0.0000000000
 C    0.0008643844    0.0018137488   -2.4817833900
 H   -1.2368067090   -1.2464609093   -3.5308081393
 H    1.2393442906    1.2452279976   -3.5347661328
 C    0.0012896257   -0.0003920890    2.4817780632
 H    1.2442757676   -1.2444563869    3.5382614316
 H   -1.2395812675    1.2395345322    3.5273182993
units bohr
}

basis {

assign 6-31g_2dfp_

[ 6-31g_2dfp_ ]
spherical

!----------------------------------------------------------------------
! Basis Set Exchange
! Version v0.8.13
! https://www.basissetexchange.org
!----------------------------------------------------------------------
!   Basis set: 6-31G(2df,p)
! Description: 6-31G(2df,p)
!        Role: orbital
!     Version: 0  (Data from the original Basis Set Exchange)
!----------------------------------------------------------------------

****
H     0
S    3   1.00
     18.7311370              0.03349460
      2.8253937              0.23472695
      0.6401217              0.81375733
S    1   1.00
      0.1612778              1.00000000
P    1   1.00
      1.5000000              1.0000000
P    1   1.00
      0.3750000              1.0000000
****
C     0
S    6   1.00
   3047.5249000              0.0018347
    457.3695100              0.0140373
    103.9486900              0.0688426
     29.2101550              0.2321844
      9.2866630              0.4679413
      3.1639270              0.3623120
SP   3   1.00
      7.8682724             -0.1193324              0.0689991
      1.8812885             -0.1608542              0.3164240
      0.5442493              1.1434564              0.7443083
SP   1   1.00
      0.1687144              1.0000000              1.0000000
D    1   1.00
      1.2520000              1.0000000
D    1   1.00
      0.3130000              1.0000000
F    1   1.00
      0.8000000              1.0000000
****
}

set {
opt_type min
reference rhf
freeze_core true
e_convergence 10
d_convergence 10
ensure_bt_convergence true
dft_spherical_points 590
dft_radial_points 99
}

e = energy('b3lyp')

print_out('Grab this energy {0}'.format(e))
--------------------------------------------------------------------------

    Molecular point group: c1

    Geometry (in Bohr), charge = 0, multiplicity = 1:

       Center              X                  Y                   Z               Mass
    ------------   -----------------  -----------------  -----------------  -----------------
         C           -0.002663899753     0.003715761208     0.000001366859    12.000000000000
         C            0.000822645447    -0.000164258792    -2.481781891041    12.000000000000
         H           -1.236848447953    -1.248438916892    -3.530806640341     1.007825032230
         H            1.239302551647     1.243249990008    -3.534764633841     1.007825032230
         C            0.001247886747    -0.002370096592     2.481779562159    12.000000000000
         H            1.244234028647    -1.246434394492     3.538262930559     1.007825032230
         H           -1.239623006453     1.237556524608     3.527319798259     1.007825032230

  Charge       = 0
  Multiplicity = 1
  Basis Set: ANONYMOUS37D3272E
    Blend: 6-31G_2DFP_
  Basis Set: (ANONYMOUS37D3272E AUX)
    Blend: DEF2-UNIVERSAL-JKFIT

    Orbital Energies [Eh]
    ---------------------

    Doubly Occupied:

       1A    -10.201509     2A    -10.184656     3A    -10.184626
       4A     -0.784871     5A     -0.699880     6A     -0.519287
       7A     -0.446530     8A     -0.441007     9A     -0.440897
      10A     -0.263655    11A     -0.263307

  @DF-RKS Final Energy:  -116.66710953695505

   => Energetics <=

    Nuclear Repulsion Energy =             59.0065007437794762
    One-Electron Energy =                -272.1737076982483359
    Two-Electron Energy =                 110.8315672873297046
    DFT Exchange-Correlation Energy =     -14.3314698698158871
    Empirical Dispersion Energy =           0.0000000000000000
    VV10 Nonlocal Energy =                  0.0000000000000000
    Total Energy =                       -116.6671095369550528

  Dipole Moment: [D]
     X:     0.0015      Y:    -0.0023      Z:    -0.0000     Total:     0.0028

*** Psi4 exiting successfully. Buy a developer a beer!
