                               Psi4 1.4a2.dev629

  ==> Input File <==

--------------------------------------------------------------------------
import os
memory 14 GB

molecule {
 X   -1.4190277652   -1.4093993548   -0.0000000000
 C   -0.0093309769   -0.0030567838   -0.0000001757
 X    1.4118180451   -1.4166090749    0.0000000000
 C   -0.0011372813   -0.0039508633   -2.4817752288
 H   -1.2331975031   -1.2470749990   -3.5405367116
 H    1.2428373512    1.2446842496   -3.5249872009
 C   -0.0003739935    0.0017527743    2.4817677406
 H    1.2463314249   -1.2391644675    3.5240075203
 H   -1.2379193011    1.2443913996    3.5415240562
units bohr
}

basis {

assign 6-31g_2dfp_

[ 6-31g_2dfp_ ]
spherical

!----------------------------------------------------------------------
! Basis Set Exchange
! Version v0.8.13
! https://www.basissetexchange.org
!----------------------------------------------------------------------
!   Basis set: 6-31G(2df,p)
! Description: 6-31G(2df,p)
!        Role: orbital
!     Version: 0  (Data from the original Basis Set Exchange)
!----------------------------------------------------------------------

****
H     0
S    3   1.00
     18.7311370              0.03349460
      2.8253937              0.23472695
      0.6401217              0.81375733
S    1   1.00
      0.1612778              1.00000000
P    1   1.00
      1.5000000              1.0000000
P    1   1.00
      0.3750000              1.0000000
****
C     0
S    6   1.00
   3047.5249000              0.0018347
    457.3695100              0.0140373
    103.9486900              0.0688426
     29.2101550              0.2321844
      9.2866630              0.4679413
      3.1639270              0.3623120
SP   3   1.00
      7.8682724             -0.1193324              0.0689991
      1.8812885             -0.1608542              0.3164240
      0.5442493              1.1434564              0.7443083
SP   1   1.00
      0.1687144              1.0000000              1.0000000
D    1   1.00
      1.2520000              1.0000000
D    1   1.00
      0.3130000              1.0000000
F    1   1.00
      0.8000000              1.0000000
****
}

set {
opt_type min
reference rhf
freeze_core true
e_convergence 10
d_convergence 10
ensure_bt_convergence true
dft_spherical_points 590
dft_radial_points 99
}

e = energy('b3lyp')

print_out('Grab this energy {0}'.format(e))
--------------------------------------------------------------------------

    Molecular point group: c1

    Geometry (in Bohr), charge = 0, multiplicity = 1:

       Center              X                  Y                   Z               Mass
    ------------   -----------------  -----------------  -----------------  -----------------
         C           -0.006535319730    -0.001552958106     0.000001928724    12.000000000000
         C            0.001658375870    -0.002447037606    -2.481773124376    12.000000000000
         H           -1.230401845930    -1.245571173306    -3.540534607176     1.007825032230
         H            1.245633008370     1.246188075294    -3.524985096476     1.007825032230
         C            0.002421663670     0.003256599994     2.481769845024    12.000000000000
         H            1.249127082070    -1.237660641806     3.524009624724     1.007825032230
         H           -1.235123643930     1.245895225294     3.541526160624     1.007825032230

  Charge       = 0
  Multiplicity = 1
  Basis Set: ANONYMOUS2AB52B0E
    Blend: 6-31G_2DFP_
  Basis Set: (ANONYMOUS2AB52B0E AUX)
    Blend: DEF2-UNIVERSAL-JKFIT

    Orbital Energies [Eh]
    ---------------------

    Doubly Occupied:

       1A    -10.201509     2A    -10.184656     3A    -10.184627
       4A     -0.784871     5A     -0.699878     6A     -0.519288
       7A     -0.446533     8A     -0.441005     9A     -0.440898
      10A     -0.263646    11A     -0.263315

  @DF-RKS Final Energy:  -116.66711634834805

   => Energetics <=

    Nuclear Repulsion Energy =             59.0065236777255393
    One-Electron Energy =                -272.1737695548735019
    Two-Electron Energy =                 110.8315975752655476
    DFT Exchange-Correlation Energy =     -14.3314680464656306
    Empirical Dispersion Energy =           0.0000000000000000
    VV10 Nonlocal Energy =                  0.0000000000000000
    Total Energy =                       -116.6671163483480456

  Dipole Moment: [D]
     X:     0.0051      Y:     0.0009      Z:     0.0000     Total:     0.0051

*** Psi4 exiting successfully. Buy a developer a beer!
