                               Psi4 1.4a2.dev629

  ==> Input File <==

--------------------------------------------------------------------------
import os
memory 14 GB

molecule {
 X   -1.4193075925   -1.4091195275   -0.0000000000
 C    0.0000003395   -0.0015874841   -0.0016349783
 X    1.4193138992   -1.4091132208    0.0000000000
 C   -0.0015669557   -0.0020695951   -2.4827022364
 H   -1.2481367168   -1.2453200347   -3.5367097880
 H    1.2458733863    1.2430798925   -3.5271324446
 C    0.0015693095   -0.0020710216    2.4808741588
 H    1.2408468179   -1.2380348105    3.5384228106
 H   -1.2385924874    1.2358086816    3.5288824779
units bohr
}

basis {

assign 6-31g_2dfp_

[ 6-31g_2dfp_ ]
spherical

!----------------------------------------------------------------------
! Basis Set Exchange
! Version v0.8.13
! https://www.basissetexchange.org
!----------------------------------------------------------------------
!   Basis set: 6-31G(2df,p)
! Description: 6-31G(2df,p)
!        Role: orbital
!     Version: 0  (Data from the original Basis Set Exchange)
!----------------------------------------------------------------------

****
H     0
S    3   1.00
     18.7311370              0.03349460
      2.8253937              0.23472695
      0.6401217              0.81375733
S    1   1.00
      0.1612778              1.00000000
P    1   1.00
      1.5000000              1.0000000
P    1   1.00
      0.3750000              1.0000000
****
C     0
S    6   1.00
   3047.5249000              0.0018347
    457.3695100              0.0140373
    103.9486900              0.0688426
     29.2101550              0.2321844
      9.2866630              0.4679413
      3.1639270              0.3623120
SP   3   1.00
      7.8682724             -0.1193324              0.0689991
      1.8812885             -0.1608542              0.3164240
      0.5442493              1.1434564              0.7443083
SP   1   1.00
      0.1687144              1.0000000              1.0000000
D    1   1.00
      1.2520000              1.0000000
D    1   1.00
      0.3130000              1.0000000
F    1   1.00
      0.8000000              1.0000000
****
}

set {
opt_type min
reference rhf
freeze_core true
e_convergence 10
d_convergence 10
ensure_bt_convergence true
dft_spherical_points 590
dft_radial_points 99
}

e = energy('b3lyp')

print_out('Grab this energy {0}'.format(e))
--------------------------------------------------------------------------

    Molecular point group: c1

    Geometry (in Bohr), charge = 0, multiplicity = 1:

       Center              X                  Y                   Z               Mass
    ------------   -----------------  -----------------  -----------------  -----------------
         C           -0.000000241275     0.000242045023    -0.000684059488    12.000000000000
         C           -0.001567536475    -0.000240065977    -2.481751317588    12.000000000000
         H           -1.248137297575    -1.243490505577    -3.535758869188     1.007825032230
         H            1.245872805525     1.244909421623    -3.526181525788     1.007825032230
         C            0.001568728725    -0.000241492477     2.481825077612    12.000000000000
         H            1.240846237125    -1.236205281377     3.539373729412     1.007825032230
         H           -1.238593068175     1.237638210723     3.529833396712     1.007825032230

  Charge       = 0
  Multiplicity = 1
  Basis Set: ANONYMOUS8E5FB8C6
    Blend: 6-31G_2DFP_
  Basis Set: (ANONYMOUS8E5FB8C6 AUX)
    Blend: DEF2-UNIVERSAL-JKFIT

    Orbital Energies [Eh]
    ---------------------

    Doubly Occupied:

       1A    -10.201510     2A    -10.184968     3A    -10.184314
       4A     -0.784871     5A     -0.699881     6A     -0.519292
       7A     -0.446527     8A     -0.440991     9A     -0.440913
      10A     -0.263651    11A     -0.263311

  @DF-RKS Final Energy:  -116.66710646636737

   => Energetics <=

    Nuclear Repulsion Energy =             59.0064899575513166
    One-Electron Energy =                -272.1736731931438271
    Two-Electron Energy =                 110.8315468595456821
    DFT Exchange-Correlation Energy =     -14.3314700903205381
    Empirical Dispersion Energy =           0.0000000000000000
    VV10 Nonlocal Energy =                  0.0000000000000000
    Total Energy =                       -116.6671064663673718

  Dipole Moment: [D]
     X:    -0.0000      Y:     0.0003      Z:     0.0016     Total:     0.0016

*** Psi4 exiting successfully. Buy a developer a beer!
