                               Psi4 1.4a2.dev629

  ==> Input File <==

--------------------------------------------------------------------------
import os
memory 14 GB

molecule {
 X   -1.4142135600   -1.4142135600   -0.0000000000
 C   -0.0000000000    0.0000000000    0.0060709534
 X    1.4142135600   -1.4142135600   -0.0000000000
 C    0.0000000000   -0.0000000000   -2.4792212383
 H   -1.2390067213   -1.2390067213   -3.5351404322
 H    1.2390067213    1.2390067213   -3.5351404322
 C   -0.0000000000   -0.0000000000    2.4827174369
 H    1.2375413773   -1.2375413773    3.5303568562
 H   -1.2375413773    1.2375413773    3.5303568562
units bohr
}

basis {

assign 6-31g_2dfp_

[ 6-31g_2dfp_ ]
spherical

!----------------------------------------------------------------------
! Basis Set Exchange
! Version v0.8.13
! https://www.basissetexchange.org
!----------------------------------------------------------------------
!   Basis set: 6-31G(2df,p)
! Description: 6-31G(2df,p)
!        Role: orbital
!     Version: 0  (Data from the original Basis Set Exchange)
!----------------------------------------------------------------------

****
H     0
S    3   1.00
     18.7311370              0.03349460
      2.8253937              0.23472695
      0.6401217              0.81375733
S    1   1.00
      0.1612778              1.00000000
P    1   1.00
      1.5000000              1.0000000
P    1   1.00
      0.3750000              1.0000000
****
C     0
S    6   1.00
   3047.5249000              0.0018347
    457.3695100              0.0140373
    103.9486900              0.0688426
     29.2101550              0.2321844
      9.2866630              0.4679413
      3.1639270              0.3623120
SP   3   1.00
      7.8682724             -0.1193324              0.0689991
      1.8812885             -0.1608542              0.3164240
      0.5442493              1.1434564              0.7443083
SP   1   1.00
      0.1687144              1.0000000              1.0000000
D    1   1.00
      1.2520000              1.0000000
D    1   1.00
      0.3130000              1.0000000
F    1   1.00
      0.8000000              1.0000000
****
}

set {
opt_type min
reference rhf
freeze_core true
e_convergence 10
d_convergence 10
ensure_bt_convergence true
dft_spherical_points 590
dft_radial_points 99
}

e = energy('b3lyp')

print_out('Grab this energy {0}'.format(e))
--------------------------------------------------------------------------

    Molecular point group: c2v

    Geometry (in Bohr), charge = 0, multiplicity = 1:

       Center              X                  Y                   Z               Mass
    ------------   -----------------  -----------------  -----------------  -----------------
         C            0.000000000000     0.000000000000     0.003443913849    12.000000000000
         C            0.000000000000     0.000000000000    -2.481848277851    12.000000000000
         H           -1.752220109134    -0.000000000000    -3.537767471751     1.007825032230
         H            1.752220109134     0.000000000000    -3.537767471751     1.007825032230
         C            0.000000000000     0.000000000000     2.480090397349    12.000000000000
         H            0.000000000000    -1.750147799776     3.527729816649     1.007825032230
         H           -0.000000000000     1.750147799776     3.527729816649     1.007825032230

  Charge       = 0
  Multiplicity = 1
  Basis Set: ANONYMOUS50D190FE
    Blend: 6-31G_2DFP_
  Basis Set: (ANONYMOUS50D190FE AUX)
    Blend: DEF2-UNIVERSAL-JKFIT

    Orbital Energies [Eh]
    ---------------------

    Doubly Occupied:

       1A1   -10.201434     2A1   -10.184615     3A1   -10.183691
       4A1    -0.785084     5A1    -0.700233     6A1    -0.520005
       7A1    -0.447104     1B2    -0.442012     1B1    -0.440320
       2B1    -0.264083     2B2    -0.263011

  @DF-RKS Final Energy:  -116.66710003684722

   => Energetics <=

    Nuclear Repulsion Energy =             59.0488776360203076
    One-Electron Energy =                -272.2536336342188861
    Two-Electron Energy =                 110.8720976276794516
    DFT Exchange-Correlation Energy =     -14.3344416663280896
    Empirical Dispersion Energy =           0.0000000000000000
    VV10 Nonlocal Energy =                  0.0000000000000000
    Total Energy =                       -116.6671000368472164

  Dipole Moment: [D]
     X:     0.0000      Y:     0.0000      Z:     0.0074     Total:     0.0074

*** Psi4 exiting successfully. Buy a developer a beer!
