                               Psi4 1.4a2.dev629

  ==> Input File <==

--------------------------------------------------------------------------
import os
memory 14 GB

molecule {
 X   -1.4124418795   -1.4159852405    0.0000000000
 C    0.0079811414   -0.0000104583    0.0000000028
 X    1.4159756441   -1.4124514759    0.0000000000
 C    0.0002960123   -0.0008295053   -2.4817767030
 H   -1.2459981449   -1.2423216121   -3.5375163007
 H    1.2399428369    1.2395899480   -3.5280555004
 C    0.0002970897    0.0008303337    2.4817767046
 H    1.2379322235   -1.2415922751    3.5280602841
 H   -1.2439849235    1.2443431654    3.5375115127
units bohr
}

basis {

assign 6-31g_2dfp_

[ 6-31g_2dfp_ ]
spherical

!----------------------------------------------------------------------
! Basis Set Exchange
! Version v0.8.13
! https://www.basissetexchange.org
!----------------------------------------------------------------------
!   Basis set: 6-31G(2df,p)
! Description: 6-31G(2df,p)
!        Role: orbital
!     Version: 0  (Data from the original Basis Set Exchange)
!----------------------------------------------------------------------

****
H     0
S    3   1.00
     18.7311370              0.03349460
      2.8253937              0.23472695
      0.6401217              0.81375733
S    1   1.00
      0.1612778              1.00000000
P    1   1.00
      1.5000000              1.0000000
P    1   1.00
      0.3750000              1.0000000
****
C     0
S    6   1.00
   3047.5249000              0.0018347
    457.3695100              0.0140373
    103.9486900              0.0688426
     29.2101550              0.2321844
      9.2866630              0.4679413
      3.1639270              0.3623120
SP   3   1.00
      7.8682724             -0.1193324              0.0689991
      1.8812885             -0.1608542              0.3164240
      0.5442493              1.1434564              0.7443083
SP   1   1.00
      0.1687144              1.0000000              1.0000000
D    1   1.00
      1.2520000              1.0000000
D    1   1.00
      0.3130000              1.0000000
F    1   1.00
      0.8000000              1.0000000
****
}

set {
opt_type min
reference rhf
freeze_core true
e_convergence 10
d_convergence 10
ensure_bt_convergence true
dft_spherical_points 590
dft_radial_points 99
}

e = energy('b3lyp')

print_out('Grab this energy {0}'.format(e))
--------------------------------------------------------------------------

    Molecular point group: c1

    Geometry (in Bohr), charge = 0, multiplicity = 1:

       Center              X                  Y                   Z               Mass
    ------------   -----------------  -----------------  -----------------  -----------------
         C            0.005715709926    -0.000008055626     0.000000001589    12.000000000000
         C           -0.001969419174    -0.000827102626    -2.481776704211    12.000000000000
         H           -1.248263576374    -1.242319209426    -3.537516301911     1.007825032230
         H            1.237677405426     1.239592350674    -3.528055501611     1.007825032230
         C           -0.001968341774     0.000832736374     2.481776703389    12.000000000000
         H            1.235666792026    -1.241589872426     3.528060282889     1.007825032230
         H           -1.246250354974     1.244345568074     3.537511511489     1.007825032230

  Charge       = 0
  Multiplicity = 1
  Basis Set: ANONYMOUS71C73DB8
    Blend: 6-31G_2DFP_
  Basis Set: (ANONYMOUS71C73DB8 AUX)
    Blend: DEF2-UNIVERSAL-JKFIT

    Orbital Energies [Eh]
    ---------------------

    Doubly Occupied:

       1A    -10.201509     2A    -10.184656     3A    -10.184626
       4A     -0.784872     5A     -0.699882     6A     -0.519288
       7A     -0.446528     8A     -0.440952     9A     -0.440952
      10A     -0.263483    11A     -0.263479

  @DF-RKS Final Energy:  -116.66709946501220

   => Energetics <=

    Nuclear Repulsion Energy =             59.0065583335302861
    One-Electron Energy =                -272.1738007089166445
    Two-Electron Energy =                 110.8316162163513923
    DFT Exchange-Correlation Energy =     -14.3314733059772248
    Empirical Dispersion Energy =           0.0000000000000000
    VV10 Nonlocal Energy =                  0.0000000000000000
    Total Energy =                       -116.6670994650121997

  Dipole Moment: [D]
     X:    -0.0034      Y:     0.0000      Z:    -0.0000     Total:     0.0034

*** Psi4 exiting successfully. Buy a developer a beer!
