                               Psi4 1.4a2.dev629

  ==> Input File <==

--------------------------------------------------------------------------
import os
memory 14 GB

molecule {
 X   -1.4137314689   -1.4146956511   -0.0000000000
 C    0.0000000000    0.0056798356    0.0000000000
 X    1.4137314689   -1.4146956511   -0.0000000000
 C   -0.0002172446    0.0007116282   -2.4782054710
 H   -1.2407342392   -1.2456455152   -3.5357656662
 H    1.2396537373    1.2425760603   -3.5322580467
 C    0.0002172446    0.0007116282    2.4782054710
 H    1.2407342392   -1.2456455152    3.5357656662
 H   -1.2396537373    1.2425760603    3.5322580467
units bohr
}

basis {

assign 6-31g_2dfp_

[ 6-31g_2dfp_ ]
spherical

!----------------------------------------------------------------------
! Basis Set Exchange
! Version v0.8.13
! https://www.basissetexchange.org
!----------------------------------------------------------------------
!   Basis set: 6-31G(2df,p)
! Description: 6-31G(2df,p)
!        Role: orbital
!     Version: 0  (Data from the original Basis Set Exchange)
!----------------------------------------------------------------------

****
H     0
S    3   1.00
     18.7311370              0.03349460
      2.8253937              0.23472695
      0.6401217              0.81375733
S    1   1.00
      0.1612778              1.00000000
P    1   1.00
      1.5000000              1.0000000
P    1   1.00
      0.3750000              1.0000000
****
C     0
S    6   1.00
   3047.5249000              0.0018347
    457.3695100              0.0140373
    103.9486900              0.0688426
     29.2101550              0.2321844
      9.2866630              0.4679413
      3.1639270              0.3623120
SP   3   1.00
      7.8682724             -0.1193324              0.0689991
      1.8812885             -0.1608542              0.3164240
      0.5442493              1.1434564              0.7443083
SP   1   1.00
      0.1687144              1.0000000              1.0000000
D    1   1.00
      1.2520000              1.0000000
D    1   1.00
      0.3130000              1.0000000
F    1   1.00
      0.8000000              1.0000000
****
}

set {
opt_type min
reference rhf
freeze_core true
e_convergence 10
d_convergence 10
ensure_bt_convergence true
dft_spherical_points 590
dft_radial_points 99
}

e = energy('b3lyp')

print_out('Grab this energy {0}'.format(e))
--------------------------------------------------------------------------

    Molecular point group: c2

    Geometry (in Bohr), charge = 0, multiplicity = 1:

       Center              X                  Y                   Z               Mass
    ------------   -----------------  -----------------  -----------------  -----------------
         C           -0.000000000000     0.000000000000     0.003705126890    12.000000000000
         C            0.000217244600    -2.478205471000    -0.001263080510    12.000000000000
         H            1.240734239200    -3.535765666200    -1.247620223910     1.007825032230
         H           -1.239653737300    -3.532258046700     1.240601351590     1.007825032230
         C           -0.000217244600     2.478205471000    -0.001263080510    12.000000000000
         H           -1.240734239200     3.535765666200    -1.247620223910     1.007825032230
         H            1.239653737300     3.532258046700     1.240601351590     1.007825032230

  Charge       = 0
  Multiplicity = 1
  Basis Set: ANONYMOUS748331D0
    Blend: 6-31G_2DFP_
  Basis Set: (ANONYMOUS748331D0 AUX)
    Blend: DEF2-UNIVERSAL-JKFIT

    Orbital Energies [Eh]
    ---------------------

    Doubly Occupied:

       1A    -10.201007     2A    -10.184608     1B    -10.184579
       3A     -0.785249     2B     -0.699905     4A     -0.519229
       3B     -0.446969     5A     -0.440579     4B     -0.440467
       5B     -0.263822     6A     -0.263475

  @DF-RKS Final Energy:  -116.66723384757243

   => Energetics <=

    Nuclear Repulsion Energy =             59.0426089614894138
    One-Electron Energy =                -272.2466090591385068
    Two-Electron Energy =                 110.8686033715623580
    DFT Exchange-Correlation Energy =     -14.3318371214856857
    Empirical Dispersion Energy =           0.0000000000000000
    VV10 Nonlocal Energy =                  0.0000000000000000
    Total Energy =                       -116.6672338475724331

  Dipole Moment: [D]
     X:     0.0000      Y:    -0.0000      Z:    -0.0023     Total:     0.0023

*** Psi4 exiting successfully. Buy a developer a beer!
