                               Psi4 1.4a2.dev629

  ==> Input File <==

--------------------------------------------------------------------------
import os
memory 14 GB

molecule {
 X   -1.4143827970   -1.4140443230    0.0000000000
 C    0.0019249873   -0.0000019376   -0.0000000000
 X    1.4140384631   -1.4143886569    0.0000000000
 C   -0.0019948857   -0.0023568936   -2.4826039308
 H   -1.2449565563   -1.2448612675   -3.5326294705
 H    1.2461602214    1.2466574461   -3.5330159186
 C   -0.0019946046    0.0023578844    2.4826039267
 H    1.2463570195   -1.2464579983    3.5330183446
 H   -1.2451518477    1.2446686266    3.5326270487
units bohr
}

basis {

assign 6-31g_2dfp_

[ 6-31g_2dfp_ ]
spherical

!----------------------------------------------------------------------
! Basis Set Exchange
! Version v0.8.13
! https://www.basissetexchange.org
!----------------------------------------------------------------------
!   Basis set: 6-31G(2df,p)
! Description: 6-31G(2df,p)
!        Role: orbital
!     Version: 0  (Data from the original Basis Set Exchange)
!----------------------------------------------------------------------

****
H     0
S    3   1.00
     18.7311370              0.03349460
      2.8253937              0.23472695
      0.6401217              0.81375733
S    1   1.00
      0.1612778              1.00000000
P    1   1.00
      1.5000000              1.0000000
P    1   1.00
      0.3750000              1.0000000
****
C     0
S    6   1.00
   3047.5249000              0.0018347
    457.3695100              0.0140373
    103.9486900              0.0688426
     29.2101550              0.2321844
      9.2866630              0.4679413
      3.1639270              0.3623120
SP   3   1.00
      7.8682724             -0.1193324              0.0689991
      1.8812885             -0.1608542              0.3164240
      0.5442493              1.1434564              0.7443083
SP   1   1.00
      0.1687144              1.0000000              1.0000000
D    1   1.00
      1.2520000              1.0000000
D    1   1.00
      0.3130000              1.0000000
F    1   1.00
      0.8000000              1.0000000
****
}

set {
opt_type min
reference rhf
freeze_core true
e_convergence 10
d_convergence 10
ensure_bt_convergence true
dft_spherical_points 590
dft_radial_points 99
}

e = energy('b3lyp')

print_out('Grab this energy {0}'.format(e))
--------------------------------------------------------------------------

    Molecular point group: c1

    Geometry (in Bohr), charge = 0, multiplicity = 1:

       Center              X                  Y                   Z               Mass
    ------------   -----------------  -----------------  -----------------  -----------------
         C            0.002483209236    -0.000001825152     0.000000001123    12.000000000000
         C           -0.001436663764    -0.002356781152    -2.482603929677    12.000000000000
         H           -1.244398334364    -1.244861155052    -3.532629469377     1.007825032230
         H            1.246718443336     1.246657558548    -3.533015917477     1.007825032230
         C           -0.001436382664     0.002357996848     2.482603927823    12.000000000000
         H            1.246915241436    -1.246457885852     3.533018345723     1.007825032230
         H           -1.244593625764     1.244668739048     3.532627049823     1.007825032230

  Charge       = 0
  Multiplicity = 1
  Basis Set: ANONYMOUS02EDD371
    Blend: 6-31G_2DFP_
  Basis Set: (ANONYMOUS02EDD371 AUX)
    Blend: DEF2-UNIVERSAL-JKFIT

    Orbital Energies [Eh]
    ---------------------

    Doubly Occupied:

       1A    -10.201587     2A    -10.185143     3A    -10.185114
       4A     -0.784667     5A     -0.699518     6A     -0.518579
       7A     -0.446017     8A     -0.440737     9A     -0.440683
      10A     -0.263417    11A     -0.263415

  @DF-RKS Final Energy:  -116.66708481991694

   => Energetics <=

    Nuclear Repulsion Energy =             58.9642884947485726
    One-Electron Energy =                -272.0939993798533578
    Two-Electron Energy =                 110.7911368921519966
    DFT Exchange-Correlation Energy =     -14.3285108269641608
    Empirical Dispersion Energy =           0.0000000000000000
    VV10 Nonlocal Energy =                  0.0000000000000000
    Total Energy =                       -116.6670848199169370

  Dipole Moment: [D]
     X:    -0.0027      Y:     0.0000      Z:    -0.0000     Total:     0.0027

*** Psi4 exiting successfully. Buy a developer a beer!
