                               Psi4 1.4a2.dev629

  ==> Input File <==

--------------------------------------------------------------------------
import os
memory 14 GB

molecule {
 X   -1.4213320368   -1.4070950832    0.0000000000
 C    0.0019334081    0.0082916495    0.0000071496
 X    1.4209829829   -1.4074441371   -0.0000000000
 C    0.0006109588   -0.0026560985   -2.4817570914
 H   -1.2400627076   -1.2460043164   -3.5250155346
 H    1.2447381233    1.2370167417   -3.5405165882
 C   -0.0045985449    0.0020478450    2.4817794394
 H    1.2414640257   -1.2476046279    3.5254155530
 H   -1.2437362095    1.2350209071    3.5400870723
units bohr
}

basis {

assign 6-31g_2dfp_

[ 6-31g_2dfp_ ]
spherical

!----------------------------------------------------------------------
! Basis Set Exchange
! Version v0.8.13
! https://www.basissetexchange.org
!----------------------------------------------------------------------
!   Basis set: 6-31G(2df,p)
! Description: 6-31G(2df,p)
!        Role: orbital
!     Version: 0  (Data from the original Basis Set Exchange)
!----------------------------------------------------------------------

****
H     0
S    3   1.00
     18.7311370              0.03349460
      2.8253937              0.23472695
      0.6401217              0.81375733
S    1   1.00
      0.1612778              1.00000000
P    1   1.00
      1.5000000              1.0000000
P    1   1.00
      0.3750000              1.0000000
****
C     0
S    6   1.00
   3047.5249000              0.0018347
    457.3695100              0.0140373
    103.9486900              0.0688426
     29.2101550              0.2321844
      9.2866630              0.4679413
      3.1639270              0.3623120
SP   3   1.00
      7.8682724             -0.1193324              0.0689991
      1.8812885             -0.1608542              0.3164240
      0.5442493              1.1434564              0.7443083
SP   1   1.00
      0.1687144              1.0000000              1.0000000
D    1   1.00
      1.2520000              1.0000000
D    1   1.00
      0.3130000              1.0000000
F    1   1.00
      0.8000000              1.0000000
****
}

set {
opt_type min
reference rhf
freeze_core true
e_convergence 10
d_convergence 10
ensure_bt_convergence true
dft_spherical_points 590
dft_radial_points 99
}

e = energy('b3lyp')

print_out('Grab this energy {0}'.format(e))
--------------------------------------------------------------------------

    Molecular point group: c1

    Geometry (in Bohr), charge = 0, multiplicity = 1:

       Center              X                  Y                   Z               Mass
    ------------   -----------------  -----------------  -----------------  -----------------
         C            0.002488676069     0.006531510304    -0.000000950134    12.000000000000
         C            0.001166226769    -0.004416237696    -2.481765191134    12.000000000000
         H           -1.239507439631    -1.247764455596    -3.525023634334     1.007825032230
         H            1.245293391269     1.235256602504    -3.540524687934     1.007825032230
         C           -0.004043276931     0.000287705804     2.481771339666    12.000000000000
         H            1.242019293669    -1.249364767096     3.525407453266     1.007825032230
         H           -1.243180941531     1.233260767904     3.540078972566     1.007825032230

  Charge       = 0
  Multiplicity = 1
  Basis Set: ANONYMOUS6FC6F8AD
    Blend: 6-31G_2DFP_
  Basis Set: (ANONYMOUS6FC6F8AD AUX)
    Blend: DEF2-UNIVERSAL-JKFIT

    Orbital Energies [Eh]
    ---------------------

    Doubly Occupied:

       1A    -10.201510     2A    -10.184657     3A    -10.184627
       4A     -0.784871     5A     -0.699878     6A     -0.519294
       7A     -0.446587     8A     -0.440963     9A     -0.440883
      10A     -0.263527    11A     -0.263434

  @DF-RKS Final Energy:  -116.66710859977626

   => Energetics <=

    Nuclear Repulsion Energy =             59.0065677106560855
    One-Electron Energy =                -272.1738316775740714
    Two-Electron Energy =                 110.8316259944584772
    DFT Exchange-Correlation Energy =     -14.3314706273167580
    Empirical Dispersion Energy =           0.0000000000000000
    VV10 Nonlocal Energy =                  0.0000000000000000
    Total Energy =                       -116.6671085997762560

  Dipole Moment: [D]
     X:    -0.0027      Y:    -0.0050      Z:     0.0001     Total:     0.0057

*** Psi4 exiting successfully. Buy a developer a beer!
