                               Psi4 1.4a2.dev629

  ==> Input File <==

--------------------------------------------------------------------------
import os
memory 14 GB

molecule {
 X   -1.4140173253   -1.4144097947    0.0000000000
 C   -0.0019234517    0.0007284873    0.0000005299
 X    1.4143732286   -1.4140538914    0.0000000000
 C    0.0032350528    0.0011156738   -2.4817828188
 H   -1.2431202307   -1.2423087953   -3.5329966675
 H    1.2410327185    1.2414053933   -3.5325753452
 C    0.0007497293   -0.0035930605    2.4817840677
 H    1.2417089867   -1.2407152963    3.5325913111
 H   -1.2420387081    1.2434041638    3.5329789228
units bohr
}

basis {

assign 6-31g_2dfp_

[ 6-31g_2dfp_ ]
spherical

!----------------------------------------------------------------------
! Basis Set Exchange
! Version v0.8.13
! https://www.basissetexchange.org
!----------------------------------------------------------------------
!   Basis set: 6-31G(2df,p)
! Description: 6-31G(2df,p)
!        Role: orbital
!     Version: 0  (Data from the original Basis Set Exchange)
!----------------------------------------------------------------------

****
H     0
S    3   1.00
     18.7311370              0.03349460
      2.8253937              0.23472695
      0.6401217              0.81375733
S    1   1.00
      0.1612778              1.00000000
P    1   1.00
      1.5000000              1.0000000
P    1   1.00
      0.3750000              1.0000000
****
C     0
S    6   1.00
   3047.5249000              0.0018347
    457.3695100              0.0140373
    103.9486900              0.0688426
     29.2101550              0.2321844
      9.2866630              0.4679413
      3.1639270              0.3623120
SP   3   1.00
      7.8682724             -0.1193324              0.0689991
      1.8812885             -0.1608542              0.3164240
      0.5442493              1.1434564              0.7443083
SP   1   1.00
      0.1687144              1.0000000              1.0000000
D    1   1.00
      1.2520000              1.0000000
D    1   1.00
      0.3130000              1.0000000
F    1   1.00
      0.8000000              1.0000000
****
}

set {
opt_type min
reference rhf
freeze_core true
e_convergence 10
d_convergence 10
ensure_bt_convergence true
dft_spherical_points 590
dft_radial_points 99
}

e = energy('b3lyp')

print_out('Grab this energy {0}'.format(e))
--------------------------------------------------------------------------

    Molecular point group: c1

    Geometry (in Bohr), charge = 0, multiplicity = 1:

       Center              X                  Y                   Z               Mass
    ------------   -----------------  -----------------  -----------------  -----------------
         C           -0.002480511206     0.001207796139     0.000000041460    12.000000000000
         C            0.002677993294     0.001594982639    -2.481783307240    12.000000000000
         H           -1.243677290206    -1.241829486461    -3.532997155940     1.007825032230
         H            1.240475658994     1.241884702139    -3.532575833640     1.007825032230
         C            0.000192669794    -0.003113751661     2.481783579260    12.000000000000
         H            1.241151927194    -1.240235987461     3.532590822660     1.007825032230
         H           -1.242595767606     1.243883472639     3.532978434360     1.007825032230

  Charge       = 0
  Multiplicity = 1
  Basis Set: ANONYMOUSD6990973
    Blend: 6-31G_2DFP_
  Basis Set: (ANONYMOUSD6990973 AUX)
    Blend: DEF2-UNIVERSAL-JKFIT

    Orbital Energies [Eh]
    ---------------------

    Doubly Occupied:

       1A    -10.201510     2A    -10.184657     3A    -10.184627
       4A     -0.784870     5A     -0.699880     6A     -0.519294
       7A     -0.446587     8A     -0.440949     9A     -0.440898
      10A     -0.263482    11A     -0.263481

  @DF-RKS Final Energy:  -116.66711141149736

   => Energetics <=

    Nuclear Repulsion Energy =             59.0064870774505152
    One-Electron Energy =                -272.1736676658358647
    Two-Electron Energy =                 110.8315391311815290
    DFT Exchange-Correlation Energy =     -14.3314699542935333
    Empirical Dispersion Energy =           0.0000000000000000
    VV10 Nonlocal Energy =                  0.0000000000000000
    Total Energy =                       -116.6671114114973591

  Dipole Moment: [D]
     X:     0.0027      Y:     0.0023      Z:    -0.0000     Total:     0.0035

*** Psi4 exiting successfully. Buy a developer a beer!
