                               Psi4 1.4a2.dev629

  ==> Input File <==

--------------------------------------------------------------------------
import os
memory 14 GB

molecule {
 X   -1.4178529203   -1.4105741997   -0.0000000000
 C   -0.0093273497   -0.0007455556    0.0000014442
 X    1.4106429953   -1.4177841247    0.0000000000
 C   -0.0020003187   -0.0016207384   -2.4817763256
 H   -1.2349338618   -1.2463661678   -3.5410211069
 H    1.2448421050    1.2416610976   -3.5245012163
 C    0.0004790910    0.0040832116    2.4817661120
 H    1.2480676793   -1.2384486607    3.5244825623
 H   -1.2399174201    1.2413680177    3.5410485303
units bohr
}

basis {

assign 6-31g_2dfp_

[ 6-31g_2dfp_ ]
spherical

!----------------------------------------------------------------------
! Basis Set Exchange
! Version v0.8.13
! https://www.basissetexchange.org
!----------------------------------------------------------------------
!   Basis set: 6-31G(2df,p)
! Description: 6-31G(2df,p)
!        Role: orbital
!     Version: 0  (Data from the original Basis Set Exchange)
!----------------------------------------------------------------------

****
H     0
S    3   1.00
     18.7311370              0.03349460
      2.8253937              0.23472695
      0.6401217              0.81375733
S    1   1.00
      0.1612778              1.00000000
P    1   1.00
      1.5000000              1.0000000
P    1   1.00
      0.3750000              1.0000000
****
C     0
S    6   1.00
   3047.5249000              0.0018347
    457.3695100              0.0140373
    103.9486900              0.0688426
     29.2101550              0.2321844
      9.2866630              0.4679413
      3.1639270              0.3623120
SP   3   1.00
      7.8682724             -0.1193324              0.0689991
      1.8812885             -0.1608542              0.3164240
      0.5442493              1.1434564              0.7443083
SP   1   1.00
      0.1687144              1.0000000              1.0000000
D    1   1.00
      1.2520000              1.0000000
D    1   1.00
      0.3130000              1.0000000
F    1   1.00
      0.8000000              1.0000000
****
}

set {
opt_type min
reference rhf
freeze_core true
e_convergence 10
d_convergence 10
ensure_bt_convergence true
dft_spherical_points 590
dft_radial_points 99
}

e = energy('b3lyp')

print_out('Grab this energy {0}'.format(e))
--------------------------------------------------------------------------

    Molecular point group: c1

    Geometry (in Bohr), charge = 0, multiplicity = 1:

       Center              X                  Y                   Z               Mass
    ------------   -----------------  -----------------  -----------------  -----------------
         C           -0.006529960715    -0.001215271164     0.000003852185    12.000000000000
         C            0.000797070285    -0.002090453964    -2.481773917615    12.000000000000
         H           -1.232136472815    -1.246835883364    -3.541018698915     1.007825032230
         H            1.247639493985     1.241191382036    -3.524498808315     1.007825032230
         C            0.003276479985     0.003613496036     2.481768519985    12.000000000000
         H            1.250865068285    -1.238918376264     3.524484970285     1.007825032230
         H           -1.237120031115     1.240898302136     3.541050938285     1.007825032230

  Charge       = 0
  Multiplicity = 1
  Basis Set: ANONYMOUSD302C4E5
    Blend: 6-31G_2DFP_
  Basis Set: (ANONYMOUSD302C4E5 AUX)
    Blend: DEF2-UNIVERSAL-JKFIT

    Orbital Energies [Eh]
    ---------------------

    Doubly Occupied:

       1A    -10.201510     2A    -10.184656     3A    -10.184627
       4A     -0.784871     5A     -0.699878     6A     -0.519287
       7A     -0.446531     8A     -0.440953     9A     -0.440952
      10A     -0.263481    11A     -0.263480

  @DF-RKS Final Energy:  -116.66711867827912

   => Energetics <=

    Nuclear Repulsion Energy =             59.0065186913254962
    One-Electron Energy =                -272.1737650711338574
    Two-Electron Energy =                 110.8315949867947836
    DFT Exchange-Correlation Energy =     -14.3314672852655374
    Empirical Dispersion Energy =           0.0000000000000000
    VV10 Nonlocal Energy =                  0.0000000000000000
    Total Energy =                       -116.6671186782791239

  Dipole Moment: [D]
     X:     0.0051      Y:    -0.0022      Z:     0.0000     Total:     0.0055

*** Psi4 exiting successfully. Buy a developer a beer!
