                               Psi4 1.4a2.dev629

  ==> Input File <==

--------------------------------------------------------------------------
import os
memory 14 GB

molecule {
 X   -1.4142135600   -1.4142135600    0.0000000000
 C    0.0000000000   -0.0000000000   -0.0060749162
 X    1.4142135600   -1.4142135600    0.0000000000
 C   -0.0000000000    0.0000000000   -2.4843602045
 H   -1.2449173307   -1.2449173307   -3.5304383974
 H    1.2449173307    1.2449173307   -3.5304383974
 C    0.0000000000    0.0000000000    2.4808560802
 H    1.2463930908   -1.2463930908    3.5352279177
 H   -1.2463930908    1.2463930908    3.5352279177
units bohr
}

basis {

assign 6-31g_2dfp_

[ 6-31g_2dfp_ ]
spherical

!----------------------------------------------------------------------
! Basis Set Exchange
! Version v0.8.13
! https://www.basissetexchange.org
!----------------------------------------------------------------------
!   Basis set: 6-31G(2df,p)
! Description: 6-31G(2df,p)
!        Role: orbital
!     Version: 0  (Data from the original Basis Set Exchange)
!----------------------------------------------------------------------

****
H     0
S    3   1.00
     18.7311370              0.03349460
      2.8253937              0.23472695
      0.6401217              0.81375733
S    1   1.00
      0.1612778              1.00000000
P    1   1.00
      1.5000000              1.0000000
P    1   1.00
      0.3750000              1.0000000
****
C     0
S    6   1.00
   3047.5249000              0.0018347
    457.3695100              0.0140373
    103.9486900              0.0688426
     29.2101550              0.2321844
      9.2866630              0.4679413
      3.1639270              0.3623120
SP   3   1.00
      7.8682724             -0.1193324              0.0689991
      1.8812885             -0.1608542              0.3164240
      0.5442493              1.1434564              0.7443083
SP   1   1.00
      0.1687144              1.0000000              1.0000000
D    1   1.00
      1.2520000              1.0000000
D    1   1.00
      0.3130000              1.0000000
F    1   1.00
      0.8000000              1.0000000
****
}

set {
opt_type min
reference rhf
freeze_core true
e_convergence 10
d_convergence 10
ensure_bt_convergence true
dft_spherical_points 590
dft_radial_points 99
}

e = energy('b3lyp')

print_out('Grab this energy {0}'.format(e))
--------------------------------------------------------------------------

    Molecular point group: c2v

    Geometry (in Bohr), charge = 0, multiplicity = 1:

       Center              X                  Y                   Z               Mass
    ------------   -----------------  -----------------  -----------------  -----------------
         C            0.000000000000     0.000000000000    -0.003444612194    12.000000000000
         C            0.000000000000     0.000000000000    -2.481729900494    12.000000000000
         H           -1.760578973109    -0.000000000000    -3.527808093394     1.007825032230
         H            1.760578973109     0.000000000000    -3.527808093394     1.007825032230
         C            0.000000000000     0.000000000000     2.483486384206    12.000000000000
         H            0.000000000000    -1.762666013057     3.537858221706     1.007825032230
         H           -0.000000000000     1.762666013057     3.537858221706     1.007825032230

  Charge       = 0
  Multiplicity = 1
  Basis Set: ANONYMOUSDA0DB7EB
    Blend: 6-31G_2DFP_
  Basis Set: (ANONYMOUSDA0DB7EB AUX)
    Blend: DEF2-UNIVERSAL-JKFIT

    Orbital Energies [Eh]
    ---------------------

    Doubly Occupied:

       1A1   -10.201586     2A1   -10.185589     3A1   -10.184667
       4A1    -0.784678     5A1    -0.699508     6A1    -0.518573
       7A1    -0.445955     1B1    -0.441586     1B2    -0.439901
       2B2    -0.263952     2B1    -0.262881

  @DF-RKS Final Energy:  -116.66707478705793

   => Energetics <=

    Nuclear Repulsion Energy =             58.9643640682188845
    One-Electron Energy =                -272.0941288077905256
    Two-Electron Energy =                 110.7912049872148827
    DFT Exchange-Correlation Energy =     -14.3285150347011676
    Empirical Dispersion Energy =           0.0000000000000000
    VV10 Nonlocal Energy =                  0.0000000000000000
    Total Energy =                       -116.6670747870579277

  Dipole Moment: [D]
     X:     0.0000      Y:     0.0000      Z:    -0.0074     Total:     0.0074

*** Psi4 exiting successfully. Buy a developer a beer!
