                               Psi4 1.4a2.dev629

  ==> Input File <==

--------------------------------------------------------------------------
import os
memory 14 GB

molecule {
 X   -1.4140404345   -1.4143866855   -0.0000000000
 C   -0.0019215310    0.0000026811   -0.0016349867
 X    1.4143864532   -1.4140406668   -0.0000000000
 C    0.0019964394    0.0023554620   -2.4826985776
 H   -1.2463052552   -1.2464112430   -3.5321055584
 H    1.2451043113    1.2446130063   -3.5317214392
 C    0.0019913882   -0.0023536210    2.4808704913
 H    1.2376202866   -1.2375303478    3.5334330983
 H   -1.2388316580    1.2393242948    3.5338569723
units bohr
}

basis {

assign 6-31g_2dfp_

[ 6-31g_2dfp_ ]
spherical

!----------------------------------------------------------------------
! Basis Set Exchange
! Version v0.8.13
! https://www.basissetexchange.org
!----------------------------------------------------------------------
!   Basis set: 6-31G(2df,p)
! Description: 6-31G(2df,p)
!        Role: orbital
!     Version: 0  (Data from the original Basis Set Exchange)
!----------------------------------------------------------------------

****
H     0
S    3   1.00
     18.7311370              0.03349460
      2.8253937              0.23472695
      0.6401217              0.81375733
S    1   1.00
      0.1612778              1.00000000
P    1   1.00
      1.5000000              1.0000000
P    1   1.00
      0.3750000              1.0000000
****
C     0
S    6   1.00
   3047.5249000              0.0018347
    457.3695100              0.0140373
    103.9486900              0.0688426
     29.2101550              0.2321844
      9.2866630              0.4679413
      3.1639270              0.3623120
SP   3   1.00
      7.8682724             -0.1193324              0.0689991
      1.8812885             -0.1608542              0.3164240
      0.5442493              1.1434564              0.7443083
SP   1   1.00
      0.1687144              1.0000000              1.0000000
D    1   1.00
      1.2520000              1.0000000
D    1   1.00
      0.3130000              1.0000000
F    1   1.00
      0.8000000              1.0000000
****
}

set {
opt_type min
reference rhf
freeze_core true
e_convergence 10
d_convergence 10
ensure_bt_convergence true
dft_spherical_points 590
dft_radial_points 99
}

e = energy('b3lyp')

print_out('Grab this energy {0}'.format(e))
--------------------------------------------------------------------------

    Molecular point group: c1

    Geometry (in Bohr), charge = 0, multiplicity = 1:

       Center              X                  Y                   Z               Mass
    ------------   -----------------  -----------------  -----------------  -----------------
         C           -0.002480203024     0.000001433528    -0.000684063192    12.000000000000
         C            0.001437767376     0.002354214428    -2.481747654092    12.000000000000
         H           -1.246863927224    -1.246412490572    -3.531154634892     1.007825032230
         H            1.244545639276     1.244611758728    -3.530770515692     1.007825032230
         C            0.001432716176    -0.002354868572     2.481821414808    12.000000000000
         H            1.237061614576    -1.237531595372     3.534384021808     1.007825032230
         H           -1.239390330024     1.239323047228     3.534807895808     1.007825032230

  Charge       = 0
  Multiplicity = 1
  Basis Set: ANONYMOUSA4AE4BD6
    Blend: 6-31G_2DFP_
  Basis Set: (ANONYMOUSA4AE4BD6 AUX)
    Blend: DEF2-UNIVERSAL-JKFIT

    Orbital Energies [Eh]
    ---------------------

    Doubly Occupied:

       1A    -10.201510     2A    -10.184968     3A    -10.184314
       4A     -0.784871     5A     -0.699881     6A     -0.519299
       7A     -0.446583     8A     -0.440948     9A     -0.440898
      10A     -0.263597    11A     -0.263365

  @DF-RKS Final Energy:  -116.66709958561391

   => Energetics <=

    Nuclear Repulsion Energy =             59.0065298588024376
    One-Electron Energy =                -272.1737271158247609
    Two-Electron Energy =                 110.8315705751452356
    DFT Exchange-Correlation Energy =     -14.3314729037368114
    Empirical Dispersion Energy =           0.0000000000000000
    VV10 Nonlocal Energy =                  0.0000000000000000
    Total Energy =                       -116.6670995856139115

  Dipole Moment: [D]
     X:     0.0027      Y:     0.0000      Z:     0.0016     Total:     0.0031

*** Psi4 exiting successfully. Buy a developer a beer!
