                               Psi4 1.4a2.dev629

  ==> Input File <==

--------------------------------------------------------------------------
import os
memory 14 GB

molecule {
 X   -1.4144028620   -1.4140242580    0.0000000000
 C   -0.0000001562   -0.0019413678   -0.0027798765
 X    1.4144038211   -1.4140232989    0.0000000000
 C    0.0023441172    0.0019727730   -2.4790152532
 H   -1.2427946996   -1.2428280558   -3.5336853836
 H    1.2410087602    1.2416287504   -3.5332717069
 C   -0.0023461063    0.0019801463    2.4845538260
 H    1.2425952192   -1.2426253262    3.5322880068
 H   -1.2408080936    1.2414335172    3.5319103876
units bohr
}

basis {

assign 6-31g_2dfp_

[ 6-31g_2dfp_ ]
spherical

!----------------------------------------------------------------------
! Basis Set Exchange
! Version v0.8.13
! https://www.basissetexchange.org
!----------------------------------------------------------------------
!   Basis set: 6-31G(2df,p)
! Description: 6-31G(2df,p)
!        Role: orbital
!     Version: 0  (Data from the original Basis Set Exchange)
!----------------------------------------------------------------------

****
H     0
S    3   1.00
     18.7311370              0.03349460
      2.8253937              0.23472695
      0.6401217              0.81375733
S    1   1.00
      0.1612778              1.00000000
P    1   1.00
      1.5000000              1.0000000
P    1   1.00
      0.3750000              1.0000000
****
C     0
S    6   1.00
   3047.5249000              0.0018347
    457.3695100              0.0140373
    103.9486900              0.0688426
     29.2101550              0.2321844
      9.2866630              0.4679413
      3.1639270              0.3623120
SP   3   1.00
      7.8682724             -0.1193324              0.0689991
      1.8812885             -0.1608542              0.3164240
      0.5442493              1.1434564              0.7443083
SP   1   1.00
      0.1687144              1.0000000              1.0000000
D    1   1.00
      1.2520000              1.0000000
D    1   1.00
      0.3130000              1.0000000
F    1   1.00
      0.8000000              1.0000000
****
}

set {
opt_type min
reference rhf
freeze_core true
e_convergence 10
d_convergence 10
ensure_bt_convergence true
dft_spherical_points 590
dft_radial_points 99
}

e = energy('b3lyp')

print_out('Grab this energy {0}'.format(e))
--------------------------------------------------------------------------

    Molecular point group: c1

    Geometry (in Bohr), charge = 0, multiplicity = 1:

       Center              X                  Y                   Z               Mass
    ------------   -----------------  -----------------  -----------------  -----------------
         C            0.000000457023    -0.002484162887    -0.003537385562    12.000000000000
         C            0.002344730423     0.001429977913    -2.479772762262    12.000000000000
         H           -1.242794086377    -1.243370850887    -3.534442892662     1.007825032230
         H            1.241009373423     1.241085955313    -3.534029215962     1.007825032230
         C           -0.002345493077     0.001437351213     2.483796316938    12.000000000000
         H            1.242595832423    -1.243168121287     3.531530497738     1.007825032230
         H           -1.240807480377     1.240890722113     3.531152878538     1.007825032230

  Charge       = 0
  Multiplicity = 1
  Basis Set: ANONYMOUS83802949
    Blend: 6-31G_2DFP_
  Basis Set: (ANONYMOUS83802949 AUX)
    Blend: DEF2-UNIVERSAL-JKFIT

    Orbital Energies [Eh]
    ---------------------

    Doubly Occupied:

       1A    -10.201508     2A    -10.184760     3A    -10.184521
       4A     -0.784877     5A     -0.699875     6A     -0.519294
       7A     -0.446583     8A     -0.441046     9A     -0.440805
      10A     -0.264160    11A     -0.262804

  @DF-RKS Final Energy:  -116.66709072589299

   => Energetics <=

    Nuclear Repulsion Energy =             59.0066366463287650
    One-Electron Energy =                -272.1739214656168997
    Two-Electron Energy =                 110.8316745831669152
    DFT Exchange-Correlation Energy =     -14.3314804897717689
    Empirical Dispersion Energy =           0.0000000000000000
    VV10 Nonlocal Energy =                  0.0000000000000000
    Total Energy =                       -116.6670907258929901

  Dipole Moment: [D]
     X:     0.0000      Y:     0.0027      Z:    -0.0085     Total:     0.0089

*** Psi4 exiting successfully. Buy a developer a beer!
