                               Psi4 1.4a2.dev629

  ==> Input File <==

--------------------------------------------------------------------------
import os
memory 14 GB

molecule {
 X   -1.4137523828   -1.4146747372   -0.0000000000
 C    0.0007248835    0.0056888996    0.0000001968
 X    1.4137179927   -1.4147091273   -0.0000000000
 C   -0.0014540690    0.0019494953   -2.4817847695
 H   -1.2400883349   -1.2459095347   -3.5345469810
 H    1.2399034288    1.2419557448   -3.5310269980
 C   -0.0010279238   -0.0005305460    2.4817805248
 H    1.2410036454   -1.2450116981    3.5345287426
 H   -1.2390272399    1.2428143838    3.5310492843
units bohr
}

basis {

assign 6-31g_2dfp_

[ 6-31g_2dfp_ ]
spherical

!----------------------------------------------------------------------
! Basis Set Exchange
! Version v0.8.13
! https://www.basissetexchange.org
!----------------------------------------------------------------------
!   Basis set: 6-31G(2df,p)
! Description: 6-31G(2df,p)
!        Role: orbital
!     Version: 0  (Data from the original Basis Set Exchange)
!----------------------------------------------------------------------

****
H     0
S    3   1.00
     18.7311370              0.03349460
      2.8253937              0.23472695
      0.6401217              0.81375733
S    1   1.00
      0.1612778              1.00000000
P    1   1.00
      1.5000000              1.0000000
P    1   1.00
      0.3750000              1.0000000
****
C     0
S    6   1.00
   3047.5249000              0.0018347
    457.3695100              0.0140373
    103.9486900              0.0688426
     29.2101550              0.2321844
      9.2866630              0.4679413
      3.1639270              0.3623120
SP   3   1.00
      7.8682724             -0.1193324              0.0689991
      1.8812885             -0.1608542              0.3164240
      0.5442493              1.1434564              0.7443083
SP   1   1.00
      0.1687144              1.0000000              1.0000000
D    1   1.00
      1.2520000              1.0000000
D    1   1.00
      0.3130000              1.0000000
F    1   1.00
      0.8000000              1.0000000
****
}

set {
opt_type min
reference rhf
freeze_core true
e_convergence 10
d_convergence 10
ensure_bt_convergence true
dft_spherical_points 590
dft_radial_points 99
}

e = energy('b3lyp')

print_out('Grab this energy {0}'.format(e))
--------------------------------------------------------------------------

    Molecular point group: c1

    Geometry (in Bohr), charge = 0, multiplicity = 1:

       Center              X                  Y                   Z               Mass
    ------------   -----------------  -----------------  -----------------  -----------------
         C            0.001206501474     0.003713071941     0.000001308311    12.000000000000
         C           -0.000972451026    -0.000026332359    -2.481783657989    12.000000000000
         H           -1.239606716926    -1.247885362359    -3.534545869489     1.007825032230
         H            1.240385046774     1.239979917141    -3.531025886489     1.007825032230
         C           -0.000546305826    -0.002506373659     2.481781636311    12.000000000000
         H            1.241485263374    -1.246987525759     3.534529854111     1.007825032230
         H           -1.238545621926     1.240838556141     3.531050395811     1.007825032230

  Charge       = 0
  Multiplicity = 1
  Basis Set: ANONYMOUS89224C5C
    Blend: 6-31G_2DFP_
  Basis Set: (ANONYMOUS89224C5C AUX)
    Blend: DEF2-UNIVERSAL-JKFIT

    Orbital Energies [Eh]
    ---------------------

    Doubly Occupied:

       1A    -10.201509     2A    -10.184656     3A    -10.184626
       4A     -0.784870     5A     -0.699879     6A     -0.519288
       7A     -0.446530     8A     -0.441008     9A     -0.440898
      10A     -0.263654    11A     -0.263308

  @DF-RKS Final Energy:  -116.66711563587889

   => Energetics <=

    Nuclear Repulsion Energy =             59.0064689683034587
    One-Electron Energy =                -272.1736539973647950
    Two-Electron Energy =                 110.8315378477600319
    DFT Exchange-Correlation Energy =     -14.3314684545775926
    Empirical Dispersion Energy =           0.0000000000000000
    VV10 Nonlocal Energy =                  0.0000000000000000
    Total Energy =                       -116.6671156358788863

  Dipole Moment: [D]
     X:     0.0023      Y:    -0.0023      Z:     0.0000     Total:     0.0033

*** Psi4 exiting successfully. Buy a developer a beer!
