                               Psi4 1.4a2.dev629

  ==> Input File <==

--------------------------------------------------------------------------
import os
memory 14 GB

molecule {
 X   -1.4141966135   -1.4142305065    0.0000000000
 C   -0.0007305292   -0.0000002012    0.0000000001
 X    1.4142287229   -1.4141983971    0.0000000000
 C    0.0012390213   -0.0012424237   -2.4853659285
 H   -1.2422238498   -1.2413220219   -3.5315691279
 H    1.2413338863    1.2422010854   -3.5315839173
 C    0.0012391432    0.0012428587    2.4853659281
 H    1.2413156961   -1.2422185919    3.5315842985
 H   -1.2422054773    1.2413410781    3.5315687470
units bohr
}

basis {

assign 6-31g_2dfp_

[ 6-31g_2dfp_ ]
spherical

!----------------------------------------------------------------------
! Basis Set Exchange
! Version v0.8.13
! https://www.basissetexchange.org
!----------------------------------------------------------------------
!   Basis set: 6-31G(2df,p)
! Description: 6-31G(2df,p)
!        Role: orbital
!     Version: 0  (Data from the original Basis Set Exchange)
!----------------------------------------------------------------------

****
H     0
S    3   1.00
     18.7311370              0.03349460
      2.8253937              0.23472695
      0.6401217              0.81375733
S    1   1.00
      0.1612778              1.00000000
P    1   1.00
      1.5000000              1.0000000
P    1   1.00
      0.3750000              1.0000000
****
C     0
S    6   1.00
   3047.5249000              0.0018347
    457.3695100              0.0140373
    103.9486900              0.0688426
     29.2101550              0.2321844
      9.2866630              0.4679413
      3.1639270              0.3623120
SP   3   1.00
      7.8682724             -0.1193324              0.0689991
      1.8812885             -0.1608542              0.3164240
      0.5442493              1.1434564              0.7443083
SP   1   1.00
      0.1687144              1.0000000              1.0000000
D    1   1.00
      1.2520000              1.0000000
D    1   1.00
      0.3130000              1.0000000
F    1   1.00
      0.8000000              1.0000000
****
}

set {
opt_type min
reference rhf
freeze_core true
e_convergence 10
d_convergence 10
ensure_bt_convergence true
dft_spherical_points 590
dft_radial_points 99
}

e = energy('b3lyp')

print_out('Grab this energy {0}'.format(e))
--------------------------------------------------------------------------

    Molecular point group: c1

    Geometry (in Bohr), charge = 0, multiplicity = 1:

       Center              X                  Y                   Z               Mass
    ------------   -----------------  -----------------  -----------------  -----------------
         C           -0.001209603132    -0.000000310300     0.000000000182    12.000000000000
         C            0.000759947368    -0.001242532800    -2.485365928418    12.000000000000
         H           -1.242702923732    -1.241322131000    -3.531569127818     1.007825032230
         H            1.240854812368     1.242200976300    -3.531583917218     1.007825032230
         C            0.000760069268     0.001242749600     2.485365928182    12.000000000000
         H            1.240836622168    -1.242218701000     3.531584298582     1.007825032230
         H           -1.242684551232     1.241340969000     3.531568747082     1.007825032230

  Charge       = 0
  Multiplicity = 1
  Basis Set: ANONYMOUSC6AB025F
    Blend: 6-31G_2DFP_
  Basis Set: (ANONYMOUSC6AB025F AUX)
    Blend: DEF2-UNIVERSAL-JKFIT

    Orbital Energies [Eh]
    ---------------------

    Doubly Occupied:

       1A    -10.202011     2A    -10.184705     3A    -10.184673
       4A     -0.784493     5A     -0.699856     6A     -0.519345
       7A     -0.446090     8A     -0.441387     9A     -0.441386
      10A     -0.263314    11A     -0.263314

  @DF-RKS Final Energy:  -116.66697626866205

   => Energetics <=

    Nuclear Repulsion Energy =             58.9704732926168589
    One-Electron Energy =                -272.1009256675255301
    Two-Electron Energy =                 110.7945854573155202
    DFT Exchange-Correlation Energy =     -14.3311093510689229
    Empirical Dispersion Energy =           0.0000000000000000
    VV10 Nonlocal Energy =                  0.0000000000000000
    Total Energy =                       -116.6669762686620544

  Dipole Moment: [D]
     X:    -0.0023      Y:     0.0000      Z:     0.0000     Total:     0.0023

*** Psi4 exiting successfully. Buy a developer a beer!
