                               Psi4 1.4a2.dev629

  ==> Input File <==

--------------------------------------------------------------------------
import os
memory 14 GB

molecule {
 X   -1.4142271768   -1.4141999432   -0.0000000000
 C    0.0007356004   -0.0000002009   -0.0000000001
 X    1.4141981456   -1.4142289744   -0.0000000000
 C   -0.0012400347    0.0012440885   -2.4878311944
 H   -1.2411254320   -1.2420247210   -3.5417888430
 H    1.2420120301    1.2411477539   -3.5417772862
 C   -0.0012399143   -0.0012436489    2.4878311948
 H    1.2420286507   -1.2411304457    3.5417776673
 H   -1.2411418690    1.2420089717    3.5417884616
units bohr
}

basis {

assign 6-31g_2dfp_

[ 6-31g_2dfp_ ]
spherical

!----------------------------------------------------------------------
! Basis Set Exchange
! Version v0.8.13
! https://www.basissetexchange.org
!----------------------------------------------------------------------
!   Basis set: 6-31G(2df,p)
! Description: 6-31G(2df,p)
!        Role: orbital
!     Version: 0  (Data from the original Basis Set Exchange)
!----------------------------------------------------------------------

****
H     0
S    3   1.00
     18.7311370              0.03349460
      2.8253937              0.23472695
      0.6401217              0.81375733
S    1   1.00
      0.1612778              1.00000000
P    1   1.00
      1.5000000              1.0000000
P    1   1.00
      0.3750000              1.0000000
****
C     0
S    6   1.00
   3047.5249000              0.0018347
    457.3695100              0.0140373
    103.9486900              0.0688426
     29.2101550              0.2321844
      9.2866630              0.4679413
      3.1639270              0.3623120
SP   3   1.00
      7.8682724             -0.1193324              0.0689991
      1.8812885             -0.1608542              0.3164240
      0.5442493              1.1434564              0.7443083
SP   1   1.00
      0.1687144              1.0000000              1.0000000
D    1   1.00
      1.2520000              1.0000000
D    1   1.00
      0.3130000              1.0000000
F    1   1.00
      0.8000000              1.0000000
****
}

set {
opt_type min
reference rhf
freeze_core true
e_convergence 10
d_convergence 10
ensure_bt_convergence true
dft_spherical_points 590
dft_radial_points 99
}

e = energy('b3lyp')

print_out('Grab this energy {0}'.format(e))
--------------------------------------------------------------------------

    Molecular point group: c1

    Geometry (in Bohr), charge = 0, multiplicity = 1:

       Center              X                  Y                   Z               Mass
    ------------   -----------------  -----------------  -----------------  -----------------
         C            0.001213849335    -0.000000311701    -0.000000000182    12.000000000000
         C           -0.000761785765     0.001243977699    -2.487831194482    12.000000000000
         H           -1.240647183065    -1.242024831801    -3.541788843082     1.007825032230
         H            1.242490279035     1.241147643099    -3.541777286282     1.007825032230
         C           -0.000761665365    -0.001243759701     2.487831194718    12.000000000000
         H            1.242506899635    -1.241130556501     3.541777667218     1.007825032230
         H           -1.240663620065     1.242008860899     3.541788461518     1.007825032230

  Charge       = 0
  Multiplicity = 1
  Basis Set: ANONYMOUSD8F97D1A
    Blend: 6-31G_2DFP_
  Basis Set: (ANONYMOUSD8F97D1A AUX)
    Blend: DEF2-UNIVERSAL-JKFIT

    Orbital Energies [Eh]
    ---------------------

    Doubly Occupied:

       1A    -10.202586     2A    -10.185458     3A    -10.185427
       4A     -0.783982     5A     -0.699377     6A     -0.519627
       7A     -0.446390     8A     -0.440431     9A     -0.440431
      10A     -0.263207    11A     -0.263207

  @DF-RKS Final Energy:  -116.66693918336199

   => Energetics <=

    Nuclear Repulsion Energy =             58.8906233578040812
    One-Electron Energy =                -271.9447289018121978
    Two-Electron Energy =                 110.7144179650383649
    DFT Exchange-Correlation Energy =     -14.3272516043922487
    Empirical Dispersion Energy =           0.0000000000000000
    VV10 Nonlocal Energy =                  0.0000000000000000
    Total Energy =                       -116.6669391833619898

  Dipole Moment: [D]
     X:     0.0022      Y:     0.0000      Z:    -0.0000     Total:     0.0022

*** Psi4 exiting successfully. Buy a developer a beer!
