                               Psi4 1.4a2.dev629

  ==> Input File <==

--------------------------------------------------------------------------
import os
memory 14 GB

molecule {
 X   -1.4057268384   -1.4227002816    0.0000000000
 C    0.0026224579    0.0015914323    0.0000006616
 X    1.4124892798   -1.4159378402   -0.0000000000
 C    0.0004907217    0.0009719653   -2.4817870855
 H   -1.2431703859   -1.2412433057   -3.5317320465
 H    1.2418163891    1.2416360034   -3.5338537667
 C   -0.0026433307    0.0031772481    2.4817833086
 H    1.2356861815   -1.2432330815    3.5242892597
 H   -1.2415644750    1.2473107399    3.5412996688
units bohr
}

basis {

assign 6-31g_2dfp_

[ 6-31g_2dfp_ ]
spherical

!----------------------------------------------------------------------
! Basis Set Exchange
! Version v0.8.13
! https://www.basissetexchange.org
!----------------------------------------------------------------------
!   Basis set: 6-31G(2df,p)
! Description: 6-31G(2df,p)
!        Role: orbital
!     Version: 0  (Data from the original Basis Set Exchange)
!----------------------------------------------------------------------

****
H     0
S    3   1.00
     18.7311370              0.03349460
      2.8253937              0.23472695
      0.6401217              0.81375733
S    1   1.00
      0.1612778              1.00000000
P    1   1.00
      1.5000000              1.0000000
P    1   1.00
      0.3750000              1.0000000
****
C     0
S    6   1.00
   3047.5249000              0.0018347
    457.3695100              0.0140373
    103.9486900              0.0688426
     29.2101550              0.2321844
      9.2866630              0.4679413
      3.1639270              0.3623120
SP   3   1.00
      7.8682724             -0.1193324              0.0689991
      1.8812885             -0.1608542              0.3164240
      0.5442493              1.1434564              0.7443083
SP   1   1.00
      0.1687144              1.0000000              1.0000000
D    1   1.00
      1.2520000              1.0000000
D    1   1.00
      0.3130000              1.0000000
F    1   1.00
      0.8000000              1.0000000
****
}

set {
opt_type min
reference rhf
freeze_core true
e_convergence 10
d_convergence 10
ensure_bt_convergence true
dft_spherical_points 590
dft_radial_points 99
}

e = energy('b3lyp')

print_out('Grab this energy {0}'.format(e))
--------------------------------------------------------------------------

    Molecular point group: c1

    Geometry (in Bohr), charge = 0, multiplicity = 1:

       Center              X                  Y                   Z               Mass
    ------------   -----------------  -----------------  -----------------  -----------------
         C            0.002663693043    -0.000241960194     0.000001517029    12.000000000000
         C            0.000531956843    -0.000861427194    -2.481786230071    12.000000000000
         H           -1.243129150757    -1.243076698194    -3.531731191071     1.007825032230
         H            1.241857624243     1.239802610906    -3.533852911271     1.007825032230
         C           -0.002602095557     0.001343855606     2.481784164029    12.000000000000
         H            1.235727416643    -1.245066473994     3.524290115129     1.007825032230
         H           -1.241523239857     1.245477347406     3.541300524229     1.007825032230

  Charge       = 0
  Multiplicity = 1
  Basis Set: ANONYMOUS4A995FD6
    Blend: 6-31G_2DFP_
  Basis Set: (ANONYMOUS4A995FD6 AUX)
    Blend: DEF2-UNIVERSAL-JKFIT

    Orbital Energies [Eh]
    ---------------------

    Doubly Occupied:

       1A    -10.201510     2A    -10.184656     3A    -10.184626
       4A     -0.784871     5A     -0.699880     6A     -0.519286
       7A     -0.446531     8A     -0.440992     9A     -0.440912
      10A     -0.263605    11A     -0.263356

  @DF-RKS Final Energy:  -116.66711218382157

   => Energetics <=

    Nuclear Repulsion Energy =             59.0064789112520316
    One-Electron Energy =                -272.1736673501497989
    Two-Electron Energy =                 110.8315447984271174
    DFT Exchange-Correlation Energy =     -14.3314685433509243
    Empirical Dispersion Energy =           0.0000000000000000
    VV10 Nonlocal Energy =                  0.0000000000000000
    Total Energy =                       -116.6671121838215726

  Dipole Moment: [D]
     X:    -0.0015      Y:    -0.0003      Z:     0.0000     Total:     0.0015

*** Psi4 exiting successfully. Buy a developer a beer!
