                               Psi4 1.4a2.dev629

  ==> Input File <==

--------------------------------------------------------------------------
import os
memory 14 GB

molecule {
 X   -1.4193112949   -1.4091158251    0.0000000000
 C   -0.0000010687   -0.0015874811    0.0060729267
 X    1.4193101892   -1.4091169308    0.0000000000
 C   -0.0015720590   -0.0020756780   -2.4800381230
 H   -1.2452212294   -1.2424088553   -3.5399726029
 H    1.2429674214    1.2401780490   -3.5304096776
 C    0.0015642160   -0.0020649521    2.4835382722
 H    1.2437563251   -1.2409400035    3.5351819480
 H   -1.2414924998    1.2387045570    3.5256272566
units bohr
}

basis {

assign 6-31g_2dfp_

[ 6-31g_2dfp_ ]
spherical

!----------------------------------------------------------------------
! Basis Set Exchange
! Version v0.8.13
! https://www.basissetexchange.org
!----------------------------------------------------------------------
!   Basis set: 6-31G(2df,p)
! Description: 6-31G(2df,p)
!        Role: orbital
!     Version: 0  (Data from the original Basis Set Exchange)
!----------------------------------------------------------------------

****
H     0
S    3   1.00
     18.7311370              0.03349460
      2.8253937              0.23472695
      0.6401217              0.81375733
S    1   1.00
      0.1612778              1.00000000
P    1   1.00
      1.5000000              1.0000000
P    1   1.00
      0.3750000              1.0000000
****
C     0
S    6   1.00
   3047.5249000              0.0018347
    457.3695100              0.0140373
    103.9486900              0.0688426
     29.2101550              0.2321844
      9.2866630              0.4679413
      3.1639270              0.3623120
SP   3   1.00
      7.8682724             -0.1193324              0.0689991
      1.8812885             -0.1608542              0.3164240
      0.5442493              1.1434564              0.7443083
SP   1   1.00
      0.1687144              1.0000000              1.0000000
D    1   1.00
      1.2520000              1.0000000
D    1   1.00
      0.3130000              1.0000000
F    1   1.00
      0.8000000              1.0000000
****
}

set {
opt_type min
reference rhf
freeze_core true
e_convergence 10
d_convergence 10
ensure_bt_convergence true
dft_spherical_points 590
dft_radial_points 99
}

e = energy('b3lyp')

print_out('Grab this energy {0}'.format(e))
--------------------------------------------------------------------------

    Molecular point group: c1

    Geometry (in Bohr), charge = 0, multiplicity = 1:

       Center              X                  Y                   Z               Mass
    ------------   -----------------  -----------------  -----------------  -----------------
         C            0.000001350525     0.000242050680     0.003444260508    12.000000000000
         C           -0.001569639775    -0.000246146220    -2.482666789192    12.000000000000
         H           -1.245218810175    -1.240579323520    -3.542601269092     1.007825032230
         H            1.242969840625     1.242007580780    -3.533038343792     1.007825032230
         C            0.001566635225    -0.000235420320     2.480909606008    12.000000000000
         H            1.243758744325    -1.239110471720     3.532553281808     1.007825032230
         H           -1.241490080575     1.240534088780     3.522998590408     1.007825032230

  Charge       = 0
  Multiplicity = 1
  Basis Set: ANONYMOUSB35344E7
    Blend: 6-31G_2DFP_
  Basis Set: (ANONYMOUSB35344E7 AUX)
    Blend: DEF2-UNIVERSAL-JKFIT

    Orbital Energies [Eh]
    ---------------------

    Doubly Occupied:

       1A    -10.201510     2A    -10.185103     3A    -10.184179
       4A     -0.784881     5A     -0.699870     6A     -0.519287
       7A     -0.446530     8A     -0.441799     9A     -0.440109
      10A     -0.264032    11A     -0.262932

  @DF-RKS Final Energy:  -116.66709764984587

   => Energetics <=

    Nuclear Repulsion Energy =             59.0065775837011586
    One-Electron Energy =                -272.1738200052178627
    Two-Electron Energy =                 110.8316194621981907
    DFT Exchange-Correlation Energy =     -14.3314746905273598
    Empirical Dispersion Energy =           0.0000000000000000
    VV10 Nonlocal Energy =                  0.0000000000000000
    Total Energy =                       -116.6670976498458714

  Dipole Moment: [D]
     X:     0.0000      Y:     0.0003      Z:     0.0074     Total:     0.0074

*** Psi4 exiting successfully. Buy a developer a beer!
