                               Psi4 1.4a2.dev629

  ==> Input File <==

--------------------------------------------------------------------------
import os
memory 14 GB

molecule {
 X   -1.4146920839   -1.4137350361    0.0000000000
 C    0.0000035751   -0.0056650937    0.0027798904
 X    1.4146907957   -1.4137363243    0.0000000000
 C    0.0002147966   -0.0007036077   -2.4845530525
 H   -1.2432737169   -1.2383762164   -3.5303316766
 H    1.2443640866    1.2414380225   -3.5338716552
 C   -0.0002177438   -0.0007103876    2.4790145035
 H    1.2434743101   -1.2385751539    3.5317181821
 H   -1.2445640195    1.2416366773    3.5352438083
units bohr
}

basis {

assign 6-31g_2dfp_

[ 6-31g_2dfp_ ]
spherical

!----------------------------------------------------------------------
! Basis Set Exchange
! Version v0.8.13
! https://www.basissetexchange.org
!----------------------------------------------------------------------
!   Basis set: 6-31G(2df,p)
! Description: 6-31G(2df,p)
!        Role: orbital
!     Version: 0  (Data from the original Basis Set Exchange)
!----------------------------------------------------------------------

****
H     0
S    3   1.00
     18.7311370              0.03349460
      2.8253937              0.23472695
      0.6401217              0.81375733
S    1   1.00
      0.1612778              1.00000000
P    1   1.00
      1.5000000              1.0000000
P    1   1.00
      0.3750000              1.0000000
****
C     0
S    6   1.00
   3047.5249000              0.0018347
    457.3695100              0.0140373
    103.9486900              0.0688426
     29.2101550              0.2321844
      9.2866630              0.4679413
      3.1639270              0.3623120
SP   3   1.00
      7.8682724             -0.1193324              0.0689991
      1.8812885             -0.1608542              0.3164240
      0.5442493              1.1434564              0.7443083
SP   1   1.00
      0.1687144              1.0000000              1.0000000
D    1   1.00
      1.2520000              1.0000000
D    1   1.00
      0.3130000              1.0000000
F    1   1.00
      0.8000000              1.0000000
****
}

set {
opt_type min
reference rhf
freeze_core true
e_convergence 10
d_convergence 10
ensure_bt_convergence true
dft_spherical_points 590
dft_radial_points 99
}

e = energy('b3lyp')

print_out('Grab this energy {0}'.format(e))
--------------------------------------------------------------------------

    Molecular point group: c1

    Geometry (in Bohr), charge = 0, multiplicity = 1:

       Center              X                  Y                   Z               Mass
    ------------   -----------------  -----------------  -----------------  -----------------
         C            0.000003370254    -0.003697188011     0.003537389105    12.000000000000
         C            0.000214591754     0.001264297989    -2.483795553795    12.000000000000
         H           -1.243273921746    -1.236408310711    -3.529574177895     1.007825032230
         H            1.244363881754     1.243405928189    -3.533114156495     1.007825032230
         C           -0.000217948646     0.001257518089     2.479772002205    12.000000000000
         H            1.243474105254    -1.236607248211     3.532475680805     1.007825032230
         H           -1.244564224346     1.243604582989     3.536001307005     1.007825032230

  Charge       = 0
  Multiplicity = 1
  Basis Set: ANONYMOUS881C1C20
    Blend: 6-31G_2DFP_
  Basis Set: (ANONYMOUS881C1C20 AUX)
    Blend: DEF2-UNIVERSAL-JKFIT

    Orbital Energies [Eh]
    ---------------------

    Doubly Occupied:

       1A    -10.201507     2A    -10.184760     3A    -10.184521
       4A     -0.784877     5A     -0.699875     6A     -0.519288
       7A     -0.446526     8A     -0.441084     9A     -0.440824
      10A     -0.264182    11A     -0.262782

  @DF-RKS Final Energy:  -116.66709483331510

   => Energetics <=

    Nuclear Repulsion Energy =             59.0066189338254077
    One-Electron Energy =                -272.1739081471909572
    Two-Electron Energy =                 110.8316734198333648
    DFT Exchange-Correlation Energy =     -14.3314790397829128
    Empirical Dispersion Energy =           0.0000000000000000
    VV10 Nonlocal Energy =                  0.0000000000000000
    Total Energy =                       -116.6670948333151046

  Dipole Moment: [D]
     X:     0.0000      Y:     0.0023      Z:     0.0085     Total:     0.0088

*** Psi4 exiting successfully. Buy a developer a beer!
