                               Psi4 1.4a2.dev629

  ==> Input File <==

--------------------------------------------------------------------------
import os
memory 14 GB

molecule {
 X   -1.4101348852   -1.4182922348    0.0000000000
 C    0.0093043070    0.0056735595    0.0000016978
 X    1.4173716712   -1.4110554488   -0.0000000000
 C    0.0005415766    0.0035485764   -2.4817706626
 H   -1.2471111043   -1.2414952061   -3.5262532291
 H    1.2370090429    1.2422187272   -3.5392646850
 C    0.0009616577   -0.0021450054    2.4817640998
 H    1.2339508632   -1.2493993794    3.5427586231
 H   -1.2418931291    1.2425192914    3.5227641560
units bohr
}

basis {

assign 6-31g_2dfp_

[ 6-31g_2dfp_ ]
spherical

!----------------------------------------------------------------------
! Basis Set Exchange
! Version v0.8.13
! https://www.basissetexchange.org
!----------------------------------------------------------------------
!   Basis set: 6-31G(2df,p)
! Description: 6-31G(2df,p)
!        Role: orbital
!     Version: 0  (Data from the original Basis Set Exchange)
!----------------------------------------------------------------------

****
H     0
S    3   1.00
     18.7311370              0.03349460
      2.8253937              0.23472695
      0.6401217              0.81375733
S    1   1.00
      0.1612778              1.00000000
P    1   1.00
      1.5000000              1.0000000
P    1   1.00
      0.3750000              1.0000000
****
C     0
S    6   1.00
   3047.5249000              0.0018347
    457.3695100              0.0140373
    103.9486900              0.0688426
     29.2101550              0.2321844
      9.2866630              0.4679413
      3.1639270              0.3623120
SP   3   1.00
      7.8682724             -0.1193324              0.0689991
      1.8812885             -0.1608542              0.3164240
      0.5442493              1.1434564              0.7443083
SP   1   1.00
      0.1687144              1.0000000              1.0000000
D    1   1.00
      1.2520000              1.0000000
D    1   1.00
      0.3130000              1.0000000
F    1   1.00
      0.8000000              1.0000000
****
}

set {
opt_type min
reference rhf
freeze_core true
e_convergence 10
d_convergence 10
ensure_bt_convergence true
dft_spherical_points 590
dft_radial_points 99
}

e = energy('b3lyp')

print_out('Grab this energy {0}'.format(e))
--------------------------------------------------------------------------

    Molecular point group: c1

    Geometry (in Bohr), charge = 0, multiplicity = 1:

       Center              X                  Y                   Z               Mass
    ------------   -----------------  -----------------  -----------------  -----------------
         C            0.006518862348     0.003707077684     0.000003033678    12.000000000000
         C           -0.002243868052     0.001582094584    -2.481769326722    12.000000000000
         H           -1.249896548952    -1.243461687916    -3.526251893222     1.007825032230
         H            1.234223598248     1.240252245384    -3.539263349122     1.007825032230
         C           -0.001823786952    -0.004111487216     2.481765435678    12.000000000000
         H            1.231165418548    -1.251365861216     3.542759958978     1.007825032230
         H           -1.244678573752     1.240552809584     3.522765491878     1.007825032230

  Charge       = 0
  Multiplicity = 1
  Basis Set: ANONYMOUSEAD8B864
    Blend: 6-31G_2DFP_
  Basis Set: (ANONYMOUSEAD8B864 AUX)
    Blend: DEF2-UNIVERSAL-JKFIT

    Orbital Energies [Eh]
    ---------------------

    Doubly Occupied:

       1A    -10.201509     2A    -10.184656     3A    -10.184626
       4A     -0.784871     5A     -0.699878     6A     -0.519287
       7A     -0.446530     8A     -0.441007     9A     -0.440898
      10A     -0.263652    11A     -0.263309

  @DF-RKS Final Energy:  -116.66711230444702

   => Energetics <=

    Nuclear Repulsion Energy =             59.0065549698106437
    One-Electron Energy =                -272.1738273625434203
    Two-Electron Energy =                 110.8316292092580824
    DFT Exchange-Correlation Energy =     -14.3314691209723364
    Empirical Dispersion Energy =           0.0000000000000000
    VV10 Nonlocal Energy =                  0.0000000000000000
    Total Energy =                       -116.6671123044470164

  Dipole Moment: [D]
     X:    -0.0050      Y:    -0.0023      Z:     0.0001     Total:     0.0056

*** Psi4 exiting successfully. Buy a developer a beer!
