                               Psi4 1.4a2.dev629

  ==> Input File <==

--------------------------------------------------------------------------
import os
memory 14 GB

molecule {
 X   -1.4143958237   -1.4140312963   -0.0000000000
 C    0.0019196210   -0.0007319860    0.0000005301
 X    1.4140596672   -1.4143674528   -0.0000000000
 C   -0.0032383064   -0.0011155209   -2.4817828204
 H   -1.2408181167   -1.2416204761   -3.5325778777
 H    1.2428994162    1.2425291297   -3.5329941303
 C   -0.0007525800    0.0035939428    2.4817840612
 H    1.2422132207   -1.2432251487    3.5329805092
 H   -1.2418870985    1.2405416884    3.5325897280
units bohr
}

basis {

assign 6-31g_2dfp_

[ 6-31g_2dfp_ ]
spherical

!----------------------------------------------------------------------
! Basis Set Exchange
! Version v0.8.13
! https://www.basissetexchange.org
!----------------------------------------------------------------------
!   Basis set: 6-31G(2df,p)
! Description: 6-31G(2df,p)
!        Role: orbital
!     Version: 0  (Data from the original Basis Set Exchange)
!----------------------------------------------------------------------

****
H     0
S    3   1.00
     18.7311370              0.03349460
      2.8253937              0.23472695
      0.6401217              0.81375733
S    1   1.00
      0.1612778              1.00000000
P    1   1.00
      1.5000000              1.0000000
P    1   1.00
      0.3750000              1.0000000
****
C     0
S    6   1.00
   3047.5249000              0.0018347
    457.3695100              0.0140373
    103.9486900              0.0688426
     29.2101550              0.2321844
      9.2866630              0.4679413
      3.1639270              0.3623120
SP   3   1.00
      7.8682724             -0.1193324              0.0689991
      1.8812885             -0.1608542              0.3164240
      0.5442493              1.1434564              0.7443083
SP   1   1.00
      0.1687144              1.0000000              1.0000000
D    1   1.00
      1.2520000              1.0000000
D    1   1.00
      0.3130000              1.0000000
F    1   1.00
      0.8000000              1.0000000
****
}

set {
opt_type min
reference rhf
freeze_core true
e_convergence 10
d_convergence 10
ensure_bt_convergence true
dft_spherical_points 590
dft_radial_points 99
}

e = energy('b3lyp')

print_out('Grab this energy {0}'.format(e))
--------------------------------------------------------------------------

    Molecular point group: c1

    Geometry (in Bohr), charge = 0, multiplicity = 1:

       Center              X                  Y                   Z               Mass
    ------------   -----------------  -----------------  -----------------  -----------------
         C            0.002479905699    -0.001210824712     0.000000043827    12.000000000000
         C           -0.002678021701    -0.001594359612    -2.481783306673    12.000000000000
         H           -1.240257832001    -1.242099314812    -3.532578363973     1.007825032230
         H            1.243459700899     1.242050290988    -3.532994616573     1.007825032230
         C           -0.000192295301     0.003115104088     2.481783574927    12.000000000000
         H            1.242773505399    -1.243703987412     3.532980022927     1.007825032230
         H           -1.241326813801     1.240062849688     3.532589241727     1.007825032230

  Charge       = 0
  Multiplicity = 1
  Basis Set: ANONYMOUS622541D9
    Blend: 6-31G_2DFP_
  Basis Set: (ANONYMOUS622541D9 AUX)
    Blend: DEF2-UNIVERSAL-JKFIT

    Orbital Energies [Eh]
    ---------------------

    Doubly Occupied:

       1A    -10.201510     2A    -10.184657     3A    -10.184627
       4A     -0.784870     5A     -0.699880     6A     -0.519294
       7A     -0.446587     8A     -0.440949     9A     -0.440898
      10A     -0.263483    11A     -0.263480

  @DF-RKS Final Energy:  -116.66711141142552

   => Energetics <=

    Nuclear Repulsion Energy =             59.0064870866370654
    One-Electron Energy =                -272.1736676819399463
    Two-Electron Energy =                 110.8315391362749125
    DFT Exchange-Correlation Energy =     -14.3314699523975566
    Empirical Dispersion Energy =           0.0000000000000000
    VV10 Nonlocal Energy =                  0.0000000000000000
    Total Energy =                       -116.6671114114255232

  Dipole Moment: [D]
     X:    -0.0027      Y:    -0.0023      Z:    -0.0000     Total:     0.0035

*** Psi4 exiting successfully. Buy a developer a beer!
