                               Psi4 1.4a2.dev629

  ==> Input File <==

--------------------------------------------------------------------------
import os
memory 14 GB

molecule {
 X   -1.4247896872   -1.4036374328    0.0000000000
 C   -0.0093493145    0.0082779752   -0.0000111147
 X    1.4175658137   -1.4108613063   -0.0000000000
 C    0.0018475021   -0.0031604932   -2.4817482367
 H   -1.2341945198   -1.2507801156   -3.5334642708
 H    1.2467166042    1.2361718903   -3.5320107522
 C   -0.0033681557    0.0025362280    2.4817637760
 H    1.2473022721   -1.2427980247    3.5169122250
 H   -1.2417305151    1.2358241590    3.5485583733
units bohr
}

basis {

assign 6-31g_2dfp_

[ 6-31g_2dfp_ ]
spherical

!----------------------------------------------------------------------
! Basis Set Exchange
! Version v0.8.13
! https://www.basissetexchange.org
!----------------------------------------------------------------------
!   Basis set: 6-31G(2df,p)
! Description: 6-31G(2df,p)
!        Role: orbital
!     Version: 0  (Data from the original Basis Set Exchange)
!----------------------------------------------------------------------

****
H     0
S    3   1.00
     18.7311370              0.03349460
      2.8253937              0.23472695
      0.6401217              0.81375733
S    1   1.00
      0.1612778              1.00000000
P    1   1.00
      1.5000000              1.0000000
P    1   1.00
      0.3750000              1.0000000
****
C     0
S    6   1.00
   3047.5249000              0.0018347
    457.3695100              0.0140373
    103.9486900              0.0688426
     29.2101550              0.2321844
      9.2866630              0.4679413
      3.1639270              0.3623120
SP   3   1.00
      7.8682724             -0.1193324              0.0689991
      1.8812885             -0.1608542              0.3164240
      0.5442493              1.1434564              0.7443083
SP   1   1.00
      0.1687144              1.0000000              1.0000000
D    1   1.00
      1.2520000              1.0000000
D    1   1.00
      0.3130000              1.0000000
F    1   1.00
      0.8000000              1.0000000
****
}

set {
opt_type min
reference rhf
freeze_core true
e_convergence 10
d_convergence 10
ensure_bt_convergence true
dft_spherical_points 590
dft_radial_points 99
}

e = energy('b3lyp')

print_out('Grab this energy {0}'.format(e))
--------------------------------------------------------------------------

    Molecular point group: c1

    Geometry (in Bohr), charge = 0, multiplicity = 1:

       Center              X                  Y                   Z               Mass
    ------------   -----------------  -----------------  -----------------  -----------------
         C           -0.006546403015     0.006527006627    -0.000012329646    12.000000000000
         C            0.004650413585    -0.004911461773    -2.481749451646    12.000000000000
         H           -1.231391608315    -1.252531084173    -3.533465485746     1.007825032230
         H            1.249519515685     1.234420921727    -3.532011967146     1.007825032230
         C           -0.000565244215     0.000785259427     2.481762561054    12.000000000000
         H            1.250105183585    -1.244548993273     3.516911010054     1.007825032230
         H           -1.238927603615     1.234073190427     3.548557158354     1.007825032230

  Charge       = 0
  Multiplicity = 1
  Basis Set: ANONYMOUSF92A64BB
    Blend: 6-31G_2DFP_
  Basis Set: (ANONYMOUSF92A64BB AUX)
    Blend: DEF2-UNIVERSAL-JKFIT

    Orbital Energies [Eh]
    ---------------------

    Doubly Occupied:

       1A    -10.201509     2A    -10.184656     3A    -10.184626
       4A     -0.784872     5A     -0.699876     6A     -0.519287
       7A     -0.446530     8A     -0.440968     9A     -0.440936
      10A     -0.263529    11A     -0.263431

  @DF-RKS Final Energy:  -116.66711585630753

   => Energetics <=

    Nuclear Repulsion Energy =             59.0065995057484542
    One-Electron Energy =                -272.1739294729242147
    Two-Electron Energy =                 110.8316820618647967
    DFT Exchange-Correlation Energy =     -14.3314679509965686
    Empirical Dispersion Energy =           0.0000000000000000
    VV10 Nonlocal Energy =                  0.0000000000000000
    Total Energy =                       -116.6671158563075323

  Dipole Moment: [D]
     X:     0.0051      Y:    -0.0050      Z:    -0.0000     Total:     0.0071

*** Psi4 exiting successfully. Buy a developer a beer!
