                               Psi4 1.4a2.dev629

  ==> Input File <==

--------------------------------------------------------------------------
import os
memory 14 GB

molecule {
 X   -1.4175909215   -1.4108361985   -0.0000000000
 C   -0.0026240349    0.0000046885    0.0000000002
 X    1.4108304967   -1.4175966233   -0.0000000000
 C    0.0010792118    0.0011058056   -2.4782074488
 H   -1.2384170868   -1.2431570193   -3.5302945776
 H    1.2420325962    1.2449941619   -3.5377367223
 C    0.0010784395   -0.0011026348    2.4782074477
 H    1.2458795134   -1.2411462440    3.5377299629
 H   -1.2422682144    1.2393069438    3.5303013378
units bohr
}

basis {

assign 6-31g_2dfp_

[ 6-31g_2dfp_ ]
spherical

!----------------------------------------------------------------------
! Basis Set Exchange
! Version v0.8.13
! https://www.basissetexchange.org
!----------------------------------------------------------------------
!   Basis set: 6-31G(2df,p)
! Description: 6-31G(2df,p)
!        Role: orbital
!     Version: 0  (Data from the original Basis Set Exchange)
!----------------------------------------------------------------------

****
H     0
S    3   1.00
     18.7311370              0.03349460
      2.8253937              0.23472695
      0.6401217              0.81375733
S    1   1.00
      0.1612778              1.00000000
P    1   1.00
      1.5000000              1.0000000
P    1   1.00
      0.3750000              1.0000000
****
C     0
S    6   1.00
   3047.5249000              0.0018347
    457.3695100              0.0140373
    103.9486900              0.0688426
     29.2101550              0.2321844
      9.2866630              0.4679413
      3.1639270              0.3623120
SP   3   1.00
      7.8682724             -0.1193324              0.0689991
      1.8812885             -0.1608542              0.3164240
      0.5442493              1.1434564              0.7443083
SP   1   1.00
      0.1687144              1.0000000              1.0000000
D    1   1.00
      1.2520000              1.0000000
D    1   1.00
      0.3130000              1.0000000
F    1   1.00
      0.8000000              1.0000000
****
}

set {
opt_type min
reference rhf
freeze_core true
e_convergence 10
d_convergence 10
ensure_bt_convergence true
dft_spherical_points 590
dft_radial_points 99
}

e = energy('b3lyp')

print_out('Grab this energy {0}'.format(e))
--------------------------------------------------------------------------

    Molecular point group: c1

    Geometry (in Bohr), charge = 0, multiplicity = 1:

       Center              X                  Y                   Z               Mass
    ------------   -----------------  -----------------  -----------------  -----------------
         C           -0.002666170809     0.000002386873     0.000000000450    12.000000000000
         C            0.001037075891     0.001103503973    -2.478207448550    12.000000000000
         H           -1.238459222709    -1.243159320927    -3.530294577350     1.007825032230
         H            1.241990460291     1.244991860273    -3.537736722050     1.007825032230
         C            0.001036303591    -0.001104936427     2.478207447950    12.000000000000
         H            1.245837377491    -1.241148545627     3.537729963150     1.007825032230
         H           -1.242310350309     1.239304642173     3.530301338050     1.007825032230

  Charge       = 0
  Multiplicity = 1
  Basis Set: ANONYMOUSBF2370FE
    Blend: 6-31G_2DFP_
  Basis Set: (ANONYMOUSBF2370FE AUX)
    Blend: DEF2-UNIVERSAL-JKFIT

    Orbital Energies [Eh]
    ---------------------

    Doubly Occupied:

       1A    -10.201007     2A    -10.184608     3A    -10.184579
       4A     -0.785249     5A     -0.699906     6A     -0.519228
       7A     -0.446969     8A     -0.440523     9A     -0.440522
      10A     -0.263649    11A     -0.263648

  @DF-RKS Final Energy:  -116.66723413505204

   => Energetics <=

    Nuclear Repulsion Energy =             59.0426041203093632
    One-Electron Energy =                -272.2465998001996468
    Two-Electron Energy =                 110.8685982323852528
    DFT Exchange-Correlation Energy =     -14.3318366875470122
    Empirical Dispersion Energy =           0.0000000000000000
    VV10 Nonlocal Energy =                  0.0000000000000000
    Total Energy =                       -116.6672341350520412

  Dipole Moment: [D]
     X:     0.0014      Y:    -0.0000      Z:    -0.0000     Total:     0.0014

*** Psi4 exiting successfully. Buy a developer a beer!
