                               Psi4 1.4a2.dev629

  ==> Input File <==

--------------------------------------------------------------------------
import os
memory 14 GB

molecule {
 X   -1.4072286152   -1.4211985048   -0.0000000000
 C    0.0000078773   -0.0083156176   -0.0016349841
 X    1.4072356934   -1.4211914266    0.0000000000
 C   -0.0026069233    0.0003116096   -2.4826864067
 H   -1.2467977802   -1.2407339885   -3.5394732304
 H    1.2433043916    1.2515482555   -3.5243111989
 C    0.0026097586    0.0003110999    2.4808583435
 H    1.2395030820   -1.2334426528    3.5411665986
 H   -1.2360274842    1.2442841053    3.5260808780
units bohr
}

basis {

assign 6-31g_2dfp_

[ 6-31g_2dfp_ ]
spherical

!----------------------------------------------------------------------
! Basis Set Exchange
! Version v0.8.13
! https://www.basissetexchange.org
!----------------------------------------------------------------------
!   Basis set: 6-31G(2df,p)
! Description: 6-31G(2df,p)
!        Role: orbital
!     Version: 0  (Data from the original Basis Set Exchange)
!----------------------------------------------------------------------

****
H     0
S    3   1.00
     18.7311370              0.03349460
      2.8253937              0.23472695
      0.6401217              0.81375733
S    1   1.00
      0.1612778              1.00000000
P    1   1.00
      1.5000000              1.0000000
P    1   1.00
      0.3750000              1.0000000
****
C     0
S    6   1.00
   3047.5249000              0.0018347
    457.3695100              0.0140373
    103.9486900              0.0688426
     29.2101550              0.2321844
      9.2866630              0.4679413
      3.1639270              0.3623120
SP   3   1.00
      7.8682724             -0.1193324              0.0689991
      1.8812885             -0.1608542              0.3164240
      0.5442493              1.1434564              0.7443083
SP   1   1.00
      0.1687144              1.0000000              1.0000000
D    1   1.00
      1.2520000              1.0000000
D    1   1.00
      0.3130000              1.0000000
F    1   1.00
      0.8000000              1.0000000
****
}

set {
opt_type min
reference rhf
freeze_core true
e_convergence 10
d_convergence 10
ensure_bt_convergence true
dft_spherical_points 590
dft_radial_points 99
}

e = energy('b3lyp')

print_out('Grab this energy {0}'.format(e))
--------------------------------------------------------------------------

    Molecular point group: c1

    Geometry (in Bohr), charge = 0, multiplicity = 1:

       Center              X                  Y                   Z               Mass
    ------------   -----------------  -----------------  -----------------  -----------------
         C            0.000005113933    -0.006554752458    -0.000684067649    12.000000000000
         C           -0.002609686667     0.002072474742    -2.481735490249    12.000000000000
         H           -1.246800543567    -1.238973123358    -3.538522313949     1.007825032230
         H            1.243301628233     1.253309120642    -3.523360282449     1.007825032230
         C            0.002606995233     0.002071965042     2.481809259951    12.000000000000
         H            1.239500318633    -1.231681787658     3.542117515051     1.007825032230
         H           -1.236030247567     1.246044970442     3.527031794451     1.007825032230

  Charge       = 0
  Multiplicity = 1
  Basis Set: ANONYMOUS934335A5
    Blend: 6-31G_2DFP_
  Basis Set: (ANONYMOUS934335A5 AUX)
    Blend: DEF2-UNIVERSAL-JKFIT

    Orbital Energies [Eh]
    ---------------------

    Doubly Occupied:

       1A    -10.201509     2A    -10.184968     3A    -10.184314
       4A     -0.784871     5A     -0.699879     6A     -0.519292
       7A     -0.446526     8A     -0.440968     9A     -0.440936
      10A     -0.263607    11A     -0.263354

  @DF-RKS Final Energy:  -116.66710738892262

   => Energetics <=

    Nuclear Repulsion Energy =             59.0065561968855121
    One-Electron Energy =                -272.1738153826547091
    Two-Electron Energy =                 110.8316220656536473
    DFT Exchange-Correlation Energy =     -14.3314702688070756
    Empirical Dispersion Energy =           0.0000000000000000
    VV10 Nonlocal Energy =                  0.0000000000000000
    Total Energy =                       -116.6671073889226165

  Dipole Moment: [D]
     X:    -0.0000      Y:     0.0050      Z:     0.0016     Total:     0.0053

*** Psi4 exiting successfully. Buy a developer a beer!
