                               Psi4 1.4a2.dev629

  ==> Input File <==

--------------------------------------------------------------------------
import os
memory 14 GB

molecule {
 X   -1.4072428745   -1.4211842455   -0.0000000000
 C    0.0007228304   -0.0083158272   -0.0000013747
 X    1.4072196362   -1.4212074838    0.0000000000
 C   -0.0038496093    0.0015530313   -2.4817662805
 H   -1.2426967003   -1.2375336606   -3.5403385975
 H    1.2401035221    1.2474831324   -3.5251942591
 C    0.0013671989   -0.0009299262    2.4817762914
 H    1.2436017387   -1.2366416347    3.5403142113
 H   -1.2392257421    1.2483494942    3.5252100091
units bohr
}

basis {

assign 6-31g_2dfp_

[ 6-31g_2dfp_ ]
spherical

!----------------------------------------------------------------------
! Basis Set Exchange
! Version v0.8.13
! https://www.basissetexchange.org
!----------------------------------------------------------------------
!   Basis set: 6-31G(2df,p)
! Description: 6-31G(2df,p)
!        Role: orbital
!     Version: 0  (Data from the original Basis Set Exchange)
!----------------------------------------------------------------------

****
H     0
S    3   1.00
     18.7311370              0.03349460
      2.8253937              0.23472695
      0.6401217              0.81375733
S    1   1.00
      0.1612778              1.00000000
P    1   1.00
      1.5000000              1.0000000
P    1   1.00
      0.3750000              1.0000000
****
C     0
S    6   1.00
   3047.5249000              0.0018347
    457.3695100              0.0140373
    103.9486900              0.0688426
     29.2101550              0.2321844
      9.2866630              0.4679413
      3.1639270              0.3623120
SP   3   1.00
      7.8682724             -0.1193324              0.0689991
      1.8812885             -0.1608542              0.3164240
      0.5442493              1.1434564              0.7443083
SP   1   1.00
      0.1687144              1.0000000              1.0000000
D    1   1.00
      1.2520000              1.0000000
D    1   1.00
      0.3130000              1.0000000
F    1   1.00
      0.8000000              1.0000000
****
}

set {
opt_type min
reference rhf
freeze_core true
e_convergence 10
d_convergence 10
ensure_bt_convergence true
dft_spherical_points 590
dft_radial_points 99
}

e = energy('b3lyp')

print_out('Grab this energy {0}'.format(e))
--------------------------------------------------------------------------

    Molecular point group: c1

    Geometry (in Bohr), charge = 0, multiplicity = 1:

       Center              X                  Y                   Z               Mass
    ------------   -----------------  -----------------  -----------------  -----------------
         C            0.001205407557    -0.006555058393    -0.000003746110    12.000000000000
         C           -0.003367032143     0.003313800107    -2.481768651910    12.000000000000
         H           -1.242214123143    -1.235772891793    -3.540340968910     1.007825032230
         H            1.240586099257     1.249243901207    -3.525196630510     1.007825032230
         C            0.001849776057     0.000830842607     2.481773919990    12.000000000000
         H            1.244084315857    -1.234880865893     3.540311839890     1.007825032230
         H           -1.238743164943     1.250110263007     3.525207637690     1.007825032230

  Charge       = 0
  Multiplicity = 1
  Basis Set: ANONYMOUS046E2135
    Blend: 6-31G_2DFP_
  Basis Set: (ANONYMOUS046E2135 AUX)
    Blend: DEF2-UNIVERSAL-JKFIT

    Orbital Energies [Eh]
    ---------------------

    Doubly Occupied:

       1A    -10.201509     2A    -10.184656     3A    -10.184627
       4A     -0.784871     5A     -0.699877     6A     -0.519287
       7A     -0.446531     8A     -0.440968     9A     -0.440937
      10A     -0.263531    11A     -0.263431

  @DF-RKS Final Energy:  -116.66711919451697

   => Energetics <=

    Nuclear Repulsion Energy =             59.0065134126452833
    One-Electron Energy =                -272.1737559352898188
    Two-Electron Energy =                 110.8315906127835433
    DFT Exchange-Correlation Energy =     -14.3314672846559894
    Empirical Dispersion Energy =           0.0000000000000000
    VV10 Nonlocal Energy =                  0.0000000000000000
    Total Energy =                       -116.6671191945169710

  Dipole Moment: [D]
     X:     0.0023      Y:     0.0050      Z:    -0.0000     Total:     0.0055

*** Psi4 exiting successfully. Buy a developer a beer!
