                               Psi4 1.4a2.dev629

  ==> Input File <==

--------------------------------------------------------------------------
import os
memory 14 GB

molecule {
 X   -1.4177854194   -1.4106417006   -0.0000000000
 C   -0.0026431657   -0.0019366886   -0.0000067123
 X    1.4110155263   -1.4174115937   -0.0000000000
 C    0.0034193635    0.0030799049   -2.4817829772
 H   -1.2389469024   -1.2437353977   -3.5292680223
 H    1.2407951506    1.2443733138   -3.5362993237
 C   -0.0012716533    0.0008761803    2.4817800546
 H    1.2464356352   -1.2417171829    3.5366930047
 H   -1.2410185349    1.2386860445    3.5288839761
units bohr
}

basis {

assign 6-31g_2dfp_

[ 6-31g_2dfp_ ]
spherical

!----------------------------------------------------------------------
! Basis Set Exchange
! Version v0.8.13
! https://www.basissetexchange.org
!----------------------------------------------------------------------
!   Basis set: 6-31G(2df,p)
! Description: 6-31G(2df,p)
!        Role: orbital
!     Version: 0  (Data from the original Basis Set Exchange)
!----------------------------------------------------------------------

****
H     0
S    3   1.00
     18.7311370              0.03349460
      2.8253937              0.23472695
      0.6401217              0.81375733
S    1   1.00
      0.1612778              1.00000000
P    1   1.00
      1.5000000              1.0000000
P    1   1.00
      0.3750000              1.0000000
****
C     0
S    6   1.00
   3047.5249000              0.0018347
    457.3695100              0.0140373
    103.9486900              0.0688426
     29.2101550              0.2321844
      9.2866630              0.4679413
      3.1639270              0.3623120
SP   3   1.00
      7.8682724             -0.1193324              0.0689991
      1.8812885             -0.1608542              0.3164240
      0.5442493              1.1434564              0.7443083
SP   1   1.00
      0.1687144              1.0000000              1.0000000
D    1   1.00
      1.2520000              1.0000000
D    1   1.00
      0.3130000              1.0000000
F    1   1.00
      0.8000000              1.0000000
****
}

set {
opt_type min
reference rhf
freeze_core true
e_convergence 10
d_convergence 10
ensure_bt_convergence true
dft_spherical_points 590
dft_radial_points 99
}

e = energy('b3lyp')

print_out('Grab this energy {0}'.format(e))
--------------------------------------------------------------------------

    Molecular point group: c1

    Geometry (in Bohr), charge = 0, multiplicity = 1:

       Center              X                  Y                   Z               Mass
    ------------   -----------------  -----------------  -----------------  -----------------
         C           -0.002677557141    -0.002481782309    -0.000004066655    12.000000000000
         C            0.003384972059     0.002534811191    -2.481780331555    12.000000000000
         H           -1.238981293841    -1.244280491409    -3.529265376655     1.007825032230
         H            1.240760759159     1.243828220091    -3.536296678055     1.007825032230
         C           -0.001306044741     0.000331086591     2.481782700245    12.000000000000
         H            1.246401243759    -1.242262276609     3.536695650345     1.007825032230
         H           -1.241052926341     1.238140950791     3.528886621745     1.007825032230

  Charge       = 0
  Multiplicity = 1
  Basis Set: ANONYMOUS4A9E66F8
    Blend: 6-31G_2DFP_
  Basis Set: (ANONYMOUS4A9E66F8 AUX)
    Blend: DEF2-UNIVERSAL-JKFIT

    Orbital Energies [Eh]
    ---------------------

    Doubly Occupied:

       1A    -10.201510     2A    -10.184656     3A    -10.184627
       4A     -0.784871     5A     -0.699880     6A     -0.519293
       7A     -0.446586     8A     -0.440953     9A     -0.440894
      10A     -0.263496    11A     -0.263466

  @DF-RKS Final Energy:  -116.66710543932250

   => Energetics <=

    Nuclear Repulsion Energy =             59.0065183246426628
    One-Electron Energy =                -272.1737207287521869
    Two-Electron Energy =                 110.8315682874795414
    DFT Exchange-Correlation Energy =     -14.3314713226925097
    Empirical Dispersion Energy =           0.0000000000000000
    VV10 Nonlocal Energy =                  0.0000000000000000
    Total Energy =                       -116.6671054393224978

  Dipole Moment: [D]
     X:     0.0015      Y:     0.0027      Z:    -0.0000     Total:     0.0031

*** Psi4 exiting successfully. Buy a developer a beer!
