                               Psi4 1.4a2.dev629

  ==> Input File <==

--------------------------------------------------------------------------
import os
memory 14 GB

molecule {
 X   -1.4175752125   -1.4108519075   -0.0000000000
 C   -0.0026303457    0.0007351122    0.0000000717
 X    1.4108155356   -1.4176115844   -0.0000000000
 C    0.0023218398   -0.0001355395   -2.4817835747
 H   -1.2386775677   -1.2425124264   -3.5290786669
 H    1.2414178951    1.2452402846   -3.5365060586
 C   -0.0001645496   -0.0023396956    2.4817856820
 H    1.2461425980   -1.2405035339    3.5365126336
 H   -1.2416501930    1.2395521705    3.5290699129
units bohr
}

basis {

assign 6-31g_2dfp_

[ 6-31g_2dfp_ ]
spherical

!----------------------------------------------------------------------
! Basis Set Exchange
! Version v0.8.13
! https://www.basissetexchange.org
!----------------------------------------------------------------------
!   Basis set: 6-31G(2df,p)
! Description: 6-31G(2df,p)
!        Role: orbital
!     Version: 0  (Data from the original Basis Set Exchange)
!----------------------------------------------------------------------

****
H     0
S    3   1.00
     18.7311370              0.03349460
      2.8253937              0.23472695
      0.6401217              0.81375733
S    1   1.00
      0.1612778              1.00000000
P    1   1.00
      1.5000000              1.0000000
P    1   1.00
      0.3750000              1.0000000
****
C     0
S    6   1.00
   3047.5249000              0.0018347
    457.3695100              0.0140373
    103.9486900              0.0688426
     29.2101550              0.2321844
      9.2866630              0.4679413
      3.1639270              0.3623120
SP   3   1.00
      7.8682724             -0.1193324              0.0689991
      1.8812885             -0.1608542              0.3164240
      0.5442493              1.1434564              0.7443083
SP   1   1.00
      0.1687144              1.0000000              1.0000000
D    1   1.00
      1.2520000              1.0000000
D    1   1.00
      0.3130000              1.0000000
F    1   1.00
      0.8000000              1.0000000
****
}

set {
opt_type min
reference rhf
freeze_core true
e_convergence 10
d_convergence 10
ensure_bt_convergence true
dft_spherical_points 590
dft_radial_points 99
}

e = energy('b3lyp')

print_out('Grab this energy {0}'.format(e))
--------------------------------------------------------------------------

    Molecular point group: c1

    Geometry (in Bohr), charge = 0, multiplicity = 1:

       Center              X                  Y                   Z               Mass
    ------------   -----------------  -----------------  -----------------  -----------------
         C           -0.002670630746     0.001212015993    -0.000000526631    12.000000000000
         C            0.002281554754     0.000341364293    -2.481784173031    12.000000000000
         H           -1.238717852746    -1.242035522607    -3.529079265231     1.007825032230
         H            1.241377610054     1.245717188393    -3.536506656931     1.007825032230
         C           -0.000204834646    -0.001862791807     2.481785083669    12.000000000000
         H            1.246102312954    -1.240026630107     3.536512035269     1.007825032230
         H           -1.241690478046     1.240029074293     3.529069314569     1.007825032230

  Charge       = 0
  Multiplicity = 1
  Basis Set: ANONYMOUS375F5E4A
    Blend: 6-31G_2DFP_
  Basis Set: (ANONYMOUS375F5E4A AUX)
    Blend: DEF2-UNIVERSAL-JKFIT

    Orbital Energies [Eh]
    ---------------------

    Doubly Occupied:

       1A    -10.201510     2A    -10.184656     3A    -10.184626
       4A     -0.784871     5A     -0.699880     6A     -0.519287
       7A     -0.446531     8A     -0.440954     9A     -0.440951
      10A     -0.263482    11A     -0.263481

  @DF-RKS Final Energy:  -116.66711592482815

   => Energetics <=

    Nuclear Repulsion Energy =             59.0064641169024426
    One-Electron Energy =                -272.1736447336712672
    Two-Electron Energy =                 110.8315327198333904
    DFT Exchange-Correlation Energy =     -14.3314680278927131
    Empirical Dispersion Energy =           0.0000000000000000
    VV10 Nonlocal Energy =                  0.0000000000000000
    Total Energy =                       -116.6671159248281526

  Dipole Moment: [D]
     X:     0.0015      Y:     0.0023      Z:    -0.0000     Total:     0.0027

*** Psi4 exiting successfully. Buy a developer a beer!
