                               Psi4 1.4a2.dev629

  ==> Input File <==

--------------------------------------------------------------------------
import os
memory 14 GB

molecule {
 X   -1.4178473089   -1.4105798111   -0.0000000000
 C   -0.0093289907   -0.0000154387    0.0000000033
 X    1.4106143103   -1.4178128097    0.0000000000
 C   -0.0007502129   -0.0028609948   -2.4825916860
 H   -1.2390656765   -1.2496170619   -3.5410913450
 H    1.2481005731    1.2457874369   -3.5245096137
 C   -0.0007561937    0.0028460512    2.4825916950
 H    1.2522179165   -1.2416714039    3.5245016446
 H   -1.2431844172    1.2454969119    3.5410993019
units bohr
}

basis {

assign 6-31g_2dfp_

[ 6-31g_2dfp_ ]
spherical

!----------------------------------------------------------------------
! Basis Set Exchange
! Version v0.8.13
! https://www.basissetexchange.org
!----------------------------------------------------------------------
!   Basis set: 6-31G(2df,p)
! Description: 6-31G(2df,p)
!        Role: orbital
!     Version: 0  (Data from the original Basis Set Exchange)
!----------------------------------------------------------------------

****
H     0
S    3   1.00
     18.7311370              0.03349460
      2.8253937              0.23472695
      0.6401217              0.81375733
S    1   1.00
      0.1612778              1.00000000
P    1   1.00
      1.5000000              1.0000000
P    1   1.00
      0.3750000              1.0000000
****
C     0
S    6   1.00
   3047.5249000              0.0018347
    457.3695100              0.0140373
    103.9486900              0.0688426
     29.2101550              0.2321844
      9.2866630              0.4679413
      3.1639270              0.3623120
SP   3   1.00
      7.8682724             -0.1193324              0.0689991
      1.8812885             -0.1608542              0.3164240
      0.5442493              1.1434564              0.7443083
SP   1   1.00
      0.1687144              1.0000000              1.0000000
D    1   1.00
      1.2520000              1.0000000
D    1   1.00
      0.3130000              1.0000000
F    1   1.00
      0.8000000              1.0000000
****
}

set {
opt_type min
reference rhf
freeze_core true
e_convergence 10
d_convergence 10
ensure_bt_convergence true
dft_spherical_points 590
dft_radial_points 99
}

e = energy('b3lyp')

print_out('Grab this energy {0}'.format(e))
--------------------------------------------------------------------------

    Molecular point group: c1

    Geometry (in Bohr), charge = 0, multiplicity = 1:

       Center              X                  Y                   Z               Mass
    ------------   -----------------  -----------------  -----------------  -----------------
         C           -0.006535801731    -0.000006227487    -0.000000000080    12.000000000000
         C            0.002042976069    -0.002851783587    -2.482591689380    12.000000000000
         H           -1.236272487531    -1.249607850687    -3.541091348380     1.007825032230
         H            1.250893762069     1.245796648113    -3.524509617080     1.007825032230
         C            0.002036995269     0.002855262413     2.482591691620    12.000000000000
         H            1.255011105469    -1.241662192687     3.524501641220     1.007825032230
         H           -1.240391228231     1.245506123113     3.541099298520     1.007825032230

  Charge       = 0
  Multiplicity = 1
  Basis Set: ANONYMOUSDCBE3E99
    Blend: 6-31G_2DFP_
  Basis Set: (ANONYMOUSDCBE3E99 AUX)
    Blend: DEF2-UNIVERSAL-JKFIT

    Orbital Energies [Eh]
    ---------------------

    Doubly Occupied:

       1A    -10.201586     2A    -10.185143     3A    -10.185114
       4A     -0.784668     5A     -0.699516     6A     -0.518572
       7A     -0.445957     8A     -0.440742     9A     -0.440740
      10A     -0.263417    11A     -0.263414

  @DF-RKS Final Energy:  -116.66709196608363

   => Energetics <=

    Nuclear Repulsion Energy =             58.9643204083058023
    One-Electron Energy =                -272.0940971169306977
    Two-Electron Energy =                 110.7911929048960928
    DFT Exchange-Correlation Energy =     -14.3285081623548383
    Empirical Dispersion Energy =           0.0000000000000000
    VV10 Nonlocal Energy =                  0.0000000000000000
    Total Energy =                       -116.6670919660836319

  Dipole Moment: [D]
     X:     0.0050      Y:     0.0000      Z:    -0.0000     Total:     0.0050

*** Psi4 exiting successfully. Buy a developer a beer!
