                               Psi4 1.4a2.dev629

  ==> Input File <==

--------------------------------------------------------------------------
import os
memory 14 GB

molecule {
 X   -1.4127339782   -1.4156931418   -0.0000000000
 C   -0.0092916015    0.0015713651   -0.0000027084
 X    1.4055223816   -1.4229047384   -0.0000000000
 C    0.0008141561   -0.0007793108   -2.4817697599
 H   -1.2328749867   -1.2461943997   -3.5362319478
 H    1.2441427692    1.2446266006   -3.5292996216
 C   -0.0023250879    0.0049104123    2.4817740076
 H    1.2459609379   -1.2382595767    3.5197316699
 H   -1.2392145906    1.2442956694    3.5457983603
units bohr
}

basis {

assign 6-31g_2dfp_

[ 6-31g_2dfp_ ]
spherical

!----------------------------------------------------------------------
! Basis Set Exchange
! Version v0.8.13
! https://www.basissetexchange.org
!----------------------------------------------------------------------
!   Basis set: 6-31G(2df,p)
! Description: 6-31G(2df,p)
!        Role: orbital
!     Version: 0  (Data from the original Basis Set Exchange)
!----------------------------------------------------------------------

****
H     0
S    3   1.00
     18.7311370              0.03349460
      2.8253937              0.23472695
      0.6401217              0.81375733
S    1   1.00
      0.1612778              1.00000000
P    1   1.00
      1.5000000              1.0000000
P    1   1.00
      0.3750000              1.0000000
****
C     0
S    6   1.00
   3047.5249000              0.0018347
    457.3695100              0.0140373
    103.9486900              0.0688426
     29.2101550              0.2321844
      9.2866630              0.4679413
      3.1639270              0.3623120
SP   3   1.00
      7.8682724             -0.1193324              0.0689991
      1.8812885             -0.1608542              0.3164240
      0.5442493              1.1434564              0.7443083
SP   1   1.00
      0.1687144              1.0000000              1.0000000
D    1   1.00
      1.2520000              1.0000000
D    1   1.00
      0.3130000              1.0000000
F    1   1.00
      0.8000000              1.0000000
****
}

set {
opt_type min
reference rhf
freeze_core true
e_convergence 10
d_convergence 10
ensure_bt_convergence true
dft_spherical_points 590
dft_radial_points 99
}

e = energy('b3lyp')

print_out('Grab this energy {0}'.format(e))
--------------------------------------------------------------------------

    Molecular point group: c1

    Geometry (in Bohr), charge = 0, multiplicity = 1:

       Center              X                  Y                   Z               Mass
    ------------   -----------------  -----------------  -----------------  -----------------
         C           -0.006506897823    -0.000250530694    -0.000003131078    12.000000000000
         C            0.003598859777    -0.002601206594    -2.481770182578    12.000000000000
         H           -1.230090283023    -1.248016295494    -3.536232370478     1.007825032230
         H            1.246927472877     1.242804704806    -3.529300044278     1.007825032230
         C            0.000459615777     0.003088516506     2.481773584922    12.000000000000
         H            1.248745641577    -1.240081472494     3.519731247222     1.007825032230
         H           -1.236429886923     1.242473773606     3.545797937622     1.007825032230

  Charge       = 0
  Multiplicity = 1
  Basis Set: ANONYMOUS598F60D1
    Blend: 6-31G_2DFP_
  Basis Set: (ANONYMOUS598F60D1 AUX)
    Blend: DEF2-UNIVERSAL-JKFIT

    Orbital Energies [Eh]
    ---------------------

    Doubly Occupied:

       1A    -10.201510     2A    -10.184656     3A    -10.184626
       4A     -0.784871     5A     -0.699878     6A     -0.519287
       7A     -0.446531     8A     -0.440992     9A     -0.440913
      10A     -0.263603    11A     -0.263358

  @DF-RKS Final Energy:  -116.66711495354502

   => Energetics <=

    Nuclear Repulsion Energy =             59.0065329937034875
    One-Electron Energy =                -272.1737867108635101
    Two-Electron Energy =                 110.8316065559320691
    DFT Exchange-Correlation Energy =     -14.3314677923170830
    Empirical Dispersion Energy =           0.0000000000000000
    VV10 Nonlocal Energy =                  0.0000000000000000
    Total Energy =                       -116.6671149535450240

  Dipole Moment: [D]
     X:     0.0050      Y:    -0.0002      Z:     0.0001     Total:     0.0050

*** Psi4 exiting successfully. Buy a developer a beer!
