                               Psi4 1.4a2.dev629

  ==> Input File <==

--------------------------------------------------------------------------
import os
memory 14 GB

molecule {
 X   -1.4137247834   -1.4147023366    0.0000000000
 C   -0.0000000000    0.0064261820    0.0000000000
 X    1.4137247834   -1.4147023366   -0.0000000000
 C    0.0010328249   -0.0005286474   -2.4817787802
 H   -1.2409973678   -1.2450080671   -3.5345404910
 H    1.2390391168    1.2428124001   -3.5310340795
 C   -0.0010328249   -0.0005286474    2.4817787802
 H    1.2409973678   -1.2450080671    3.5345404910
 H   -1.2390391168    1.2428124001    3.5310340795
units bohr
}

basis {

assign 6-31g_2dfp_

[ 6-31g_2dfp_ ]
spherical

!----------------------------------------------------------------------
! Basis Set Exchange
! Version v0.8.13
! https://www.basissetexchange.org
!----------------------------------------------------------------------
!   Basis set: 6-31G(2df,p)
! Description: 6-31G(2df,p)
!        Role: orbital
!     Version: 0  (Data from the original Basis Set Exchange)
!----------------------------------------------------------------------

****
H     0
S    3   1.00
     18.7311370              0.03349460
      2.8253937              0.23472695
      0.6401217              0.81375733
S    1   1.00
      0.1612778              1.00000000
P    1   1.00
      1.5000000              1.0000000
P    1   1.00
      0.3750000              1.0000000
****
C     0
S    6   1.00
   3047.5249000              0.0018347
    457.3695100              0.0140373
    103.9486900              0.0688426
     29.2101550              0.2321844
      9.2866630              0.4679413
      3.1639270              0.3623120
SP   3   1.00
      7.8682724             -0.1193324              0.0689991
      1.8812885             -0.1608542              0.3164240
      0.5442493              1.1434564              0.7443083
SP   1   1.00
      0.1687144              1.0000000              1.0000000
D    1   1.00
      1.2520000              1.0000000
D    1   1.00
      0.3130000              1.0000000
F    1   1.00
      0.8000000              1.0000000
****
}

set {
opt_type min
reference rhf
freeze_core true
e_convergence 10
d_convergence 10
ensure_bt_convergence true
dft_spherical_points 590
dft_radial_points 99
}

e = energy('b3lyp')

print_out('Grab this energy {0}'.format(e))
--------------------------------------------------------------------------

    Molecular point group: c2

    Geometry (in Bohr), charge = 0, multiplicity = 1:

       Center              X                  Y                   Z               Mass
    ------------   -----------------  -----------------  -----------------  -----------------
         C            0.000000000000     0.000000000000     0.004927331104    12.000000000000
         C           -0.001032824900    -2.481778780200    -0.002027498296    12.000000000000
         H            1.240997367800    -3.534540491000    -1.246506917996     1.007825032230
         H           -1.239039116800    -3.531034079500     1.241313549204     1.007825032230
         C            0.001032824900     2.481778780200    -0.002027498296    12.000000000000
         H           -1.240997367800     3.534540491000    -1.246506917996     1.007825032230
         H            1.239039116800     3.531034079500     1.241313549204     1.007825032230

  Charge       = 0
  Multiplicity = 1
  Basis Set: ANONYMOUS345FAB79
    Blend: 6-31G_2DFP_
  Basis Set: (ANONYMOUS345FAB79 AUX)
    Blend: DEF2-UNIVERSAL-JKFIT

    Orbital Energies [Eh]
    ---------------------

    Doubly Occupied:

       1A    -10.201509     2A    -10.184656     1B    -10.184626
       3A     -0.784870     2B     -0.699879     4A     -0.519288
       3B     -0.446529     5A     -0.441008     4B     -0.440897
       5B     -0.263653     6A     -0.263309

  @DF-RKS Final Energy:  -116.66711501677010

   => Energetics <=

    Nuclear Repulsion Energy =             59.0064847145869535
    One-Electron Energy =                -272.1736871399468214
    Two-Electron Energy =                 110.8315562404713432
    DFT Exchange-Correlation Energy =     -14.3314688318815637
    Empirical Dispersion Energy =           0.0000000000000000
    VV10 Nonlocal Energy =                  0.0000000000000000
    Total Energy =                       -116.6671150167700972

  Dipole Moment: [D]
     X:     0.0000      Y:     0.0000      Z:    -0.0001     Total:     0.0001

*** Psi4 exiting successfully. Buy a developer a beer!
