                               Psi4 1.4a2.dev629

  ==> Input File <==

--------------------------------------------------------------------------
import os
memory 14 GB

molecule {
 X   -1.4175937866   -1.4108333334   -0.0000000000
 C   -0.0026341430    0.0000046849    0.0000000002
 X    1.4108276304   -1.4175994896   -0.0000000000
 C    0.0010776738    0.0011010706   -2.4817857218
 H   -1.2382233450   -1.2429704906   -3.5290753211
 H    1.2418483194    1.2448091560   -3.5365123316
 C    0.0010768835   -0.0010979242    2.4817857207
 H    1.2456985014   -1.2409579603    3.5365055588
 H   -1.2420777340    1.2391171666    3.5290820948
units bohr
}

basis {

assign 6-31g_2dfp_

[ 6-31g_2dfp_ ]
spherical

!----------------------------------------------------------------------
! Basis Set Exchange
! Version v0.8.13
! https://www.basissetexchange.org
!----------------------------------------------------------------------
!   Basis set: 6-31G(2df,p)
! Description: 6-31G(2df,p)
!        Role: orbital
!     Version: 0  (Data from the original Basis Set Exchange)
!----------------------------------------------------------------------

****
H     0
S    3   1.00
     18.7311370              0.03349460
      2.8253937              0.23472695
      0.6401217              0.81375733
S    1   1.00
      0.1612778              1.00000000
P    1   1.00
      1.5000000              1.0000000
P    1   1.00
      0.3750000              1.0000000
****
C     0
S    6   1.00
   3047.5249000              0.0018347
    457.3695100              0.0140373
    103.9486900              0.0688426
     29.2101550              0.2321844
      9.2866630              0.4679413
      3.1639270              0.3623120
SP   3   1.00
      7.8682724             -0.1193324              0.0689991
      1.8812885             -0.1608542              0.3164240
      0.5442493              1.1434564              0.7443083
SP   1   1.00
      0.1687144              1.0000000              1.0000000
D    1   1.00
      1.2520000              1.0000000
D    1   1.00
      0.3130000              1.0000000
F    1   1.00
      0.8000000              1.0000000
****
}

set {
opt_type min
reference rhf
freeze_core true
e_convergence 10
d_convergence 10
ensure_bt_convergence true
dft_spherical_points 590
dft_radial_points 99
}

e = energy('b3lyp')

print_out('Grab this energy {0}'.format(e))
--------------------------------------------------------------------------

    Molecular point group: c1

    Geometry (in Bohr), charge = 0, multiplicity = 1:

       Center              X                  Y                   Z               Mass
    ------------   -----------------  -----------------  -----------------  -----------------
         C           -0.002672798041     0.000002390929     0.000000000447    12.000000000000
         C            0.001039018759     0.001098776629    -2.481785721553    12.000000000000
         H           -1.238262000041    -1.242972784571    -3.529075320853     1.007825032230
         H            1.241809664359     1.244806862029    -3.536512331353     1.007825032230
         C            0.001038228459    -0.001100218171     2.481785720947    12.000000000000
         H            1.245659846359    -1.240960254271     3.536505559047     1.007825032230
         H           -1.242116389041     1.239114872629     3.529082095047     1.007825032230

  Charge       = 0
  Multiplicity = 1
  Basis Set: ANONYMOUSD004FA7F
    Blend: 6-31G_2DFP_
  Basis Set: (ANONYMOUSD004FA7F AUX)
    Blend: DEF2-UNIVERSAL-JKFIT

    Orbital Energies [Eh]
    ---------------------

    Doubly Occupied:

       1A    -10.201510     2A    -10.184656     3A    -10.184627
       4A     -0.784870     5A     -0.699880     6A     -0.519287
       7A     -0.446531     8A     -0.440953     9A     -0.440952
      10A     -0.263482    11A     -0.263480

  @DF-RKS Final Energy:  -116.66711643141041

   => Energetics <=

    Nuclear Repulsion Energy =             59.0064558281577618
    One-Electron Energy =                -272.1736296475419863
    Two-Electron Energy =                 110.8315253246672825
    DFT Exchange-Correlation Energy =     -14.3314679366934588
    Empirical Dispersion Energy =           0.0000000000000000
    VV10 Nonlocal Energy =                  0.0000000000000000
    Total Energy =                       -116.6671164314104061

  Dipole Moment: [D]
     X:     0.0015      Y:    -0.0000      Z:    -0.0000     Total:     0.0015

*** Psi4 exiting successfully. Buy a developer a beer!
