                               Psi4 1.4a2.dev629

  ==> Input File <==

--------------------------------------------------------------------------
import os
memory 14 GB

molecule {
 X   -1.4141986611   -1.4142284589    0.0000000000
 C    0.0000021227    0.0007304211   -0.0027798773
 X    1.4141977671   -1.4142293529    0.0000000000
 C    0.0012429378   -0.0012383543   -2.4790183636
 H   -1.2425136619   -1.2416081942   -3.5334900896
 H    1.2416347680    1.2424979060   -3.5334784254
 C   -0.0012426597   -0.0012400237    2.4845569309
 H    1.2423138990   -1.2414085541    3.5321135147
 H   -1.2414365118    1.2422974910    3.5320963104
units bohr
}

basis {

assign 6-31g_2dfp_

[ 6-31g_2dfp_ ]
spherical

!----------------------------------------------------------------------
! Basis Set Exchange
! Version v0.8.13
! https://www.basissetexchange.org
!----------------------------------------------------------------------
!   Basis set: 6-31G(2df,p)
! Description: 6-31G(2df,p)
!        Role: orbital
!     Version: 0  (Data from the original Basis Set Exchange)
!----------------------------------------------------------------------

****
H     0
S    3   1.00
     18.7311370              0.03349460
      2.8253937              0.23472695
      0.6401217              0.81375733
S    1   1.00
      0.1612778              1.00000000
P    1   1.00
      1.5000000              1.0000000
P    1   1.00
      0.3750000              1.0000000
****
C     0
S    6   1.00
   3047.5249000              0.0018347
    457.3695100              0.0140373
    103.9486900              0.0688426
     29.2101550              0.2321844
      9.2866630              0.4679413
      3.1639270              0.3623120
SP   3   1.00
      7.8682724             -0.1193324              0.0689991
      1.8812885             -0.1608542              0.3164240
      0.5442493              1.1434564              0.7443083
SP   1   1.00
      0.1687144              1.0000000              1.0000000
D    1   1.00
      1.2520000              1.0000000
D    1   1.00
      0.3130000              1.0000000
F    1   1.00
      0.8000000              1.0000000
****
}

set {
opt_type min
reference rhf
freeze_core true
e_convergence 10
d_convergence 10
ensure_bt_convergence true
dft_spherical_points 590
dft_radial_points 99
}

e = energy('b3lyp')

print_out('Grab this energy {0}'.format(e))
--------------------------------------------------------------------------

    Molecular point group: c1

    Geometry (in Bohr), charge = 0, multiplicity = 1:

       Center              X                  Y                   Z               Mass
    ------------   -----------------  -----------------  -----------------  -----------------
         C            0.000001440956     0.001209619029    -0.003537384630    12.000000000000
         C            0.001242256056    -0.000759156371    -2.479775870930    12.000000000000
         H           -1.242514343644    -1.241128996271    -3.534247596930     1.007825032230
         H            1.241634086256     1.242977103929    -3.534235932730     1.007825032230
         C           -0.001243341444    -0.000760825771     2.483799423570    12.000000000000
         H            1.242313217256    -1.240929356171     3.531356007370     1.007825032230
         H           -1.241437193544     1.242776688929     3.531338803070     1.007825032230

  Charge       = 0
  Multiplicity = 1
  Basis Set: ANONYMOUSDEED453E
    Blend: 6-31G_2DFP_
  Basis Set: (ANONYMOUSDEED453E AUX)
    Blend: DEF2-UNIVERSAL-JKFIT

    Orbital Energies [Eh]
    ---------------------

    Doubly Occupied:

       1A    -10.201507     2A    -10.184760     3A    -10.184521
       4A     -0.784877     5A     -0.699875     6A     -0.519287
       7A     -0.446527     8A     -0.441072     9A     -0.440837
      10A     -0.264160    11A     -0.262804

  @DF-RKS Final Energy:  -116.66710121916172

   => Energetics <=

    Nuclear Repulsion Energy =             59.0065824588831731
    One-Electron Energy =                -272.1738454882143969
    Two-Electron Energy =                 110.8316390120678250
    DFT Exchange-Correlation Energy =     -14.3314772018983199
    Empirical Dispersion Energy =           0.0000000000000000
    VV10 Nonlocal Energy =                  0.0000000000000000
    Total Energy =                       -116.6671012191617223

  Dipole Moment: [D]
     X:     0.0000      Y:     0.0023      Z:    -0.0085     Total:     0.0088

*** Psi4 exiting successfully. Buy a developer a beer!
