                               Psi4 1.4a2.dev629

  ==> Input File <==

--------------------------------------------------------------------------
import os
memory 14 GB

molecule {
 X   -1.4146868169   -1.4137403031    0.0000000000
 C    0.0000000000   -0.0056743130   -0.0000000000
 X    1.4146868169   -1.4137403031    0.0000000000
 C    0.0002120291   -0.0007046150   -2.4853620417
 H   -1.2431799985   -1.2382789039   -3.5298109736
 H    1.2442701251    1.2413474186   -3.5333355488
 C   -0.0002120291   -0.0007046150    2.4853620417
 H    1.2431799985   -1.2382789039    3.5298109736
 H   -1.2442701251    1.2413474186    3.5333355488
units bohr
}

basis {

assign 6-31g_2dfp_

[ 6-31g_2dfp_ ]
spherical

!----------------------------------------------------------------------
! Basis Set Exchange
! Version v0.8.13
! https://www.basissetexchange.org
!----------------------------------------------------------------------
!   Basis set: 6-31G(2df,p)
! Description: 6-31G(2df,p)
!        Role: orbital
!     Version: 0  (Data from the original Basis Set Exchange)
!----------------------------------------------------------------------

****
H     0
S    3   1.00
     18.7311370              0.03349460
      2.8253937              0.23472695
      0.6401217              0.81375733
S    1   1.00
      0.1612778              1.00000000
P    1   1.00
      1.5000000              1.0000000
P    1   1.00
      0.3750000              1.0000000
****
C     0
S    6   1.00
   3047.5249000              0.0018347
    457.3695100              0.0140373
    103.9486900              0.0688426
     29.2101550              0.2321844
      9.2866630              0.4679413
      3.1639270              0.3623120
SP   3   1.00
      7.8682724             -0.1193324              0.0689991
      1.8812885             -0.1608542              0.3164240
      0.5442493              1.1434564              0.7443083
SP   1   1.00
      0.1687144              1.0000000              1.0000000
D    1   1.00
      1.2520000              1.0000000
D    1   1.00
      0.3130000              1.0000000
F    1   1.00
      0.8000000              1.0000000
****
}

set {
opt_type min
reference rhf
freeze_core true
e_convergence 10
d_convergence 10
ensure_bt_convergence true
dft_spherical_points 590
dft_radial_points 99
}

e = energy('b3lyp')

print_out('Grab this energy {0}'.format(e))
--------------------------------------------------------------------------

    Molecular point group: c2

    Geometry (in Bohr), charge = 0, multiplicity = 1:

       Center              X                  Y                   Z               Mass
    ------------   -----------------  -----------------  -----------------  -----------------
         C           -0.000000000000     0.000000000000    -0.003705417064    12.000000000000
         C           -0.000212029100    -2.485362041700     0.001264280936    12.000000000000
         H            1.243179998500    -3.529810973600    -1.236310007964     1.007825032230
         H           -1.244270125100    -3.533335548800     1.243316314536     1.007825032230
         C            0.000212029100     2.485362041700     0.001264280936    12.000000000000
         H           -1.243179998500     3.529810973600    -1.236310007964     1.007825032230
         H            1.244270125100     3.533335548800     1.243316314536     1.007825032230

  Charge       = 0
  Multiplicity = 1
  Basis Set: ANONYMOUSFBF8235D
    Blend: 6-31G_2DFP_
  Basis Set: (ANONYMOUSFBF8235D AUX)
    Blend: DEF2-UNIVERSAL-JKFIT

    Orbital Energies [Eh]
    ---------------------

    Doubly Occupied:

       1A    -10.202010     2A    -10.184705     1B    -10.184673
       3A     -0.784493     2B     -0.699856     4A     -0.519346
       3B     -0.446089     4B     -0.441442     5A     -0.441332
       6A     -0.263487     5B     -0.263140

  @DF-RKS Final Energy:  -116.66696984681255

   => Energetics <=

    Nuclear Repulsion Energy =             58.9705098454025745
    One-Electron Energy =                -272.1009884292343486
    Two-Electron Energy =                 110.7946199406276691
    DFT Exchange-Correlation Energy =     -14.3311112036084474
    Empirical Dispersion Energy =           0.0000000000000000
    VV10 Nonlocal Energy =                  0.0000000000000000
    Total Energy =                       -116.6669698468125489

  Dipole Moment: [D]
     X:     0.0000      Y:    -0.0000      Z:     0.0024     Total:     0.0024

*** Psi4 exiting successfully. Buy a developer a beer!
