                               Psi4 1.4a2.dev629

  ==> Input File <==

--------------------------------------------------------------------------
import os
memory 14 GB

molecule {
 X   -1.4036400910   -1.4247870290   -0.0000000000
 C    0.0092974667   -0.0083309283   -0.0000111179
 X    1.4108587050   -1.4175684150    0.0000000000
 C   -0.0018521864    0.0031544917   -2.4817482353
 H   -1.2497206980   -1.2331411419   -3.5320303279
 H    1.2372258063    1.2477755198   -3.5334446949
 C    0.0033584128   -0.0025467296    2.4817637754
 H    1.2365476207   -1.2410076049    3.5485581345
 H   -1.2420750362    1.2480247172    3.5169124662
units bohr
}

basis {

assign 6-31g_2dfp_

[ 6-31g_2dfp_ ]
spherical

!----------------------------------------------------------------------
! Basis Set Exchange
! Version v0.8.13
! https://www.basissetexchange.org
!----------------------------------------------------------------------
!   Basis set: 6-31G(2df,p)
! Description: 6-31G(2df,p)
!        Role: orbital
!     Version: 0  (Data from the original Basis Set Exchange)
!----------------------------------------------------------------------

****
H     0
S    3   1.00
     18.7311370              0.03349460
      2.8253937              0.23472695
      0.6401217              0.81375733
S    1   1.00
      0.1612778              1.00000000
P    1   1.00
      1.5000000              1.0000000
P    1   1.00
      0.3750000              1.0000000
****
C     0
S    6   1.00
   3047.5249000              0.0018347
    457.3695100              0.0140373
    103.9486900              0.0688426
     29.2101550              0.2321844
      9.2866630              0.4679413
      3.1639270              0.3623120
SP   3   1.00
      7.8682724             -0.1193324              0.0689991
      1.8812885             -0.1608542              0.3164240
      0.5442493              1.1434564              0.7443083
SP   1   1.00
      0.1687144              1.0000000              1.0000000
D    1   1.00
      1.2520000              1.0000000
D    1   1.00
      0.3130000              1.0000000
F    1   1.00
      0.8000000              1.0000000
****
}

set {
opt_type min
reference rhf
freeze_core true
e_convergence 10
d_convergence 10
ensure_bt_convergence true
dft_spherical_points 590
dft_radial_points 99
}

e = energy('b3lyp')

print_out('Grab this energy {0}'.format(e))
--------------------------------------------------------------------------

    Molecular point group: c1

    Geometry (in Bohr), charge = 0, multiplicity = 1:

       Center              X                  Y                   Z               Mass
    ------------   -----------------  -----------------  -----------------  -----------------
         C            0.006512621229    -0.006560886349    -0.000012332192    12.000000000000
         C           -0.004637031871     0.004924533651    -2.481749449592    12.000000000000
         H           -1.252505543471    -1.231371099949    -3.532031542192     1.007825032230
         H            1.234440960829     1.249545561751    -3.533445909192     1.007825032230
         C            0.000573567329    -0.000776687649     2.481762561108    12.000000000000
         H            1.233762775229    -1.239237562949     3.548556920208     1.007825032230
         H           -1.244859881671     1.249794759151     3.516911251908     1.007825032230

  Charge       = 0
  Multiplicity = 1
  Basis Set: ANONYMOUS90C9D828
    Blend: 6-31G_2DFP_
  Basis Set: (ANONYMOUS90C9D828 AUX)
    Blend: DEF2-UNIVERSAL-JKFIT

    Orbital Energies [Eh]
    ---------------------

    Doubly Occupied:

       1A    -10.201509     2A    -10.184656     3A    -10.184626
       4A     -0.784872     5A     -0.699876     6A     -0.519287
       7A     -0.446530     8A     -0.440968     9A     -0.440937
      10A     -0.263528    11A     -0.263432

  @DF-RKS Final Energy:  -116.66711585634411

   => Energetics <=

    Nuclear Repulsion Energy =             59.0065995069482057
    One-Electron Energy =                -272.1739294771840605
    Two-Electron Energy =                 110.8316820650091188
    DFT Exchange-Correlation Energy =     -14.3314679511173537
    Empirical Dispersion Energy =           0.0000000000000000
    VV10 Nonlocal Energy =                  0.0000000000000000
    Total Energy =                       -116.6671158563441111

  Dipole Moment: [D]
     X:    -0.0050      Y:     0.0050      Z:    -0.0000     Total:     0.0071

*** Psi4 exiting successfully. Buy a developer a beer!
