                               Psi4 1.4a2.dev629

  ==> Input File <==

--------------------------------------------------------------------------
import os
memory 14 GB

molecule {
 X   -1.4106183630   -1.4178087570   -0.0000000000
 C   -0.0026318808   -0.0083109312   -0.0000000163
 X    1.4038402397   -1.4245868803   -0.0000000000
 C   -0.0015274012    0.0014089891   -2.4817694765
 H   -1.2394130919   -1.2381070176   -3.5366150965
 H    1.2395551725    1.2507710782   -3.5289143599
 C    0.0036884819   -0.0007831915    2.4817692590
 H    1.2468758846   -1.2360644116    3.5440315471
 H   -1.2397690417    1.2450540019    3.5214981431
units bohr
}

basis {

assign 6-31g_2dfp_

[ 6-31g_2dfp_ ]
spherical

!----------------------------------------------------------------------
! Basis Set Exchange
! Version v0.8.13
! https://www.basissetexchange.org
!----------------------------------------------------------------------
!   Basis set: 6-31G(2df,p)
! Description: 6-31G(2df,p)
!        Role: orbital
!     Version: 0  (Data from the original Basis Set Exchange)
!----------------------------------------------------------------------

****
H     0
S    3   1.00
     18.7311370              0.03349460
      2.8253937              0.23472695
      0.6401217              0.81375733
S    1   1.00
      0.1612778              1.00000000
P    1   1.00
      1.5000000              1.0000000
P    1   1.00
      0.3750000              1.0000000
****
C     0
S    6   1.00
   3047.5249000              0.0018347
    457.3695100              0.0140373
    103.9486900              0.0688426
     29.2101550              0.2321844
      9.2866630              0.4679413
      3.1639270              0.3623120
SP   3   1.00
      7.8682724             -0.1193324              0.0689991
      1.8812885             -0.1608542              0.3164240
      0.5442493              1.1434564              0.7443083
SP   1   1.00
      0.1687144              1.0000000              1.0000000
D    1   1.00
      1.2520000              1.0000000
D    1   1.00
      0.3130000              1.0000000
F    1   1.00
      0.8000000              1.0000000
****
}

set {
opt_type min
reference rhf
freeze_core true
e_convergence 10
d_convergence 10
ensure_bt_convergence true
dft_spherical_points 590
dft_radial_points 99
}

e = energy('b3lyp')

print_out('Grab this energy {0}'.format(e))
--------------------------------------------------------------------------

    Molecular point group: c1

    Geometry (in Bohr), charge = 0, multiplicity = 1:

       Center              X                  Y                   Z               Mass
    ------------   -----------------  -----------------  -----------------  -----------------
         C           -0.002673249563    -0.006552344505     0.000000047899    12.000000000000
         C           -0.001568769963     0.003167575795    -2.481769412301    12.000000000000
         H           -1.239454460663    -1.236348430905    -3.536615032301     1.007825032230
         H            1.239513803737     1.252529664895    -3.528914295701     1.007825032230
         C            0.003647113137     0.000975395195     2.481769323199    12.000000000000
         H            1.246834515837    -1.234305824905     3.544031611299     1.007825032230
         H           -1.239810410463     1.246812588595     3.521498207299     1.007825032230

  Charge       = 0
  Multiplicity = 1
  Basis Set: ANONYMOUSAE82FF12
    Blend: 6-31G_2DFP_
  Basis Set: (ANONYMOUSAE82FF12 AUX)
    Blend: DEF2-UNIVERSAL-JKFIT

    Orbital Energies [Eh]
    ---------------------

    Doubly Occupied:

       1A    -10.201509     2A    -10.184656     3A    -10.184626
       4A     -0.784871     5A     -0.699878     6A     -0.519287
       7A     -0.446530     8A     -0.440968     9A     -0.440937
      10A     -0.263531    11A     -0.263430

  @DF-RKS Final Energy:  -116.66711309270508

   => Energetics <=

    Nuclear Repulsion Energy =             59.0065451535753169
    One-Electron Energy =                -272.1738095914779478
    Two-Electron Energy =                 110.8316200457717144
    DFT Exchange-Correlation Energy =     -14.3314687005741472
    Empirical Dispersion Energy =           0.0000000000000000
    VV10 Nonlocal Energy =                  0.0000000000000000
    Total Energy =                       -116.6671130927050797

  Dipole Moment: [D]
     X:     0.0015      Y:     0.0050      Z:     0.0001     Total:     0.0052

*** Psi4 exiting successfully. Buy a developer a beer!
