                               Psi4 1.4a2.dev629

  ==> Input File <==

--------------------------------------------------------------------------
import os
memory 14 GB

molecule {
 X   -1.4153892742   -1.4130378458    0.0000000000
 C   -0.0007300266   -0.0030415519    0.0000001392
 X    1.4154200863   -1.4130070337    0.0000000000
 C    0.0008563604   -0.0023320731   -2.4817879924
 H   -1.2402340036   -1.2426856616   -3.5322959388
 H    1.2399556171    1.2449837605   -3.5332867029
 C    0.0016257872    0.0001493904    2.4817857097
 H    1.2393250454   -1.2435803572    3.5323126205
 H   -1.2408295921    1.2441242525    3.5332721648
units bohr
}

basis {

assign 6-31g_2dfp_

[ 6-31g_2dfp_ ]
spherical

!----------------------------------------------------------------------
! Basis Set Exchange
! Version v0.8.13
! https://www.basissetexchange.org
!----------------------------------------------------------------------
!   Basis set: 6-31G(2df,p)
! Description: 6-31G(2df,p)
!        Role: orbital
!     Version: 0  (Data from the original Basis Set Exchange)
!----------------------------------------------------------------------

****
H     0
S    3   1.00
     18.7311370              0.03349460
      2.8253937              0.23472695
      0.6401217              0.81375733
S    1   1.00
      0.1612778              1.00000000
P    1   1.00
      1.5000000              1.0000000
P    1   1.00
      0.3750000              1.0000000
****
C     0
S    6   1.00
   3047.5249000              0.0018347
    457.3695100              0.0140373
    103.9486900              0.0688426
     29.2101550              0.2321844
      9.2866630              0.4679413
      3.1639270              0.3623120
SP   3   1.00
      7.8682724             -0.1193324              0.0689991
      1.8812885             -0.1608542              0.3164240
      0.5442493              1.1434564              0.7443083
SP   1   1.00
      0.1687144              1.0000000              1.0000000
D    1   1.00
      1.2520000              1.0000000
D    1   1.00
      0.3130000              1.0000000
F    1   1.00
      0.8000000              1.0000000
****
}

set {
opt_type min
reference rhf
freeze_core true
e_convergence 10
d_convergence 10
ensure_bt_convergence true
dft_spherical_points 590
dft_radial_points 99
}

e = energy('b3lyp')

print_out('Grab this energy {0}'.format(e))
--------------------------------------------------------------------------

    Molecular point group: c1

    Geometry (in Bohr), charge = 0, multiplicity = 1:

       Center              X                  Y                   Z               Mass
    ------------   -----------------  -----------------  -----------------  -----------------
         C           -0.001210364916    -0.001547056790     0.000000727780    12.000000000000
         C            0.000376022084    -0.000837577990    -2.481787403820    12.000000000000
         H           -1.240714341916    -1.241191166490    -3.532295350220     1.007825032230
         H            1.239475278784     1.246478255610    -3.533286114320     1.007825032230
         C            0.001145448884     0.001643885510     2.481786298280    12.000000000000
         H            1.238844707084    -1.242085862090     3.532313209080     1.007825032230
         H           -1.241309930416     1.245618747610     3.533272753380     1.007825032230

  Charge       = 0
  Multiplicity = 1
  Basis Set: ANONYMOUSD14D147C
    Blend: 6-31G_2DFP_
  Basis Set: (ANONYMOUSD14D147C AUX)
    Blend: DEF2-UNIVERSAL-JKFIT

    Orbital Energies [Eh]
    ---------------------

    Doubly Occupied:

       1A    -10.201510     2A    -10.184657     3A    -10.184627
       4A     -0.784870     5A     -0.699879     6A     -0.519288
       7A     -0.446533     8A     -0.441006     9A     -0.440898
      10A     -0.263648    11A     -0.263315

  @DF-RKS Final Energy:  -116.66711969212773

   => Energetics <=

    Nuclear Repulsion Energy =             59.0064371960982257
    One-Electron Energy =                -272.1735952086415296
    Two-Electron Energy =                 110.8315056954557321
    DFT Exchange-Correlation Energy =     -14.3314673750401571
    Empirical Dispersion Energy =           0.0000000000000000
    VV10 Nonlocal Energy =                  0.0000000000000000
    Total Energy =                       -116.6671196921277271

  Dipole Moment: [D]
     X:    -0.0023      Y:     0.0009      Z:     0.0000     Total:     0.0024

*** Psi4 exiting successfully. Buy a developer a beer!
