                               Psi4 1.4a2.dev629

  ==> Input File <==

--------------------------------------------------------------------------
import os
memory 14 GB

molecule {
 X   -1.4211620613   -1.4072650587    0.0000000000
 C   -0.0000177588    0.0082936135    0.0027798830
 X    1.4211588550   -1.4072682650   -0.0000000000
 C    0.0026023586   -0.0003196418   -2.4845417239
 H   -1.2406553773   -1.2466994227   -3.5245414190
 H    1.2441429365    1.2359154699   -3.5396146805
 C   -0.0026074483   -0.0002895763    2.4790032330
 H    1.2408697064   -1.2469022164    3.5259053128
 H   -1.2443312108    1.2361079776    3.5410093945
units bohr
}

basis {

assign 6-31g_2dfp_

[ 6-31g_2dfp_ ]
spherical

!----------------------------------------------------------------------
! Basis Set Exchange
! Version v0.8.13
! https://www.basissetexchange.org
!----------------------------------------------------------------------
!   Basis set: 6-31G(2df,p)
! Description: 6-31G(2df,p)
!        Role: orbital
!     Version: 0  (Data from the original Basis Set Exchange)
!----------------------------------------------------------------------

****
H     0
S    3   1.00
     18.7311370              0.03349460
      2.8253937              0.23472695
      0.6401217              0.81375733
S    1   1.00
      0.1612778              1.00000000
P    1   1.00
      1.5000000              1.0000000
P    1   1.00
      0.3750000              1.0000000
****
C     0
S    6   1.00
   3047.5249000              0.0018347
    457.3695100              0.0140373
    103.9486900              0.0688426
     29.2101550              0.2321844
      9.2866630              0.4679413
      3.1639270              0.3623120
SP   3   1.00
      7.8682724             -0.1193324              0.0689991
      1.8812885             -0.1608542              0.3164240
      0.5442493              1.1434564              0.7443083
SP   1   1.00
      0.1687144              1.0000000              1.0000000
D    1   1.00
      1.2520000              1.0000000
D    1   1.00
      0.3130000              1.0000000
F    1   1.00
      0.8000000              1.0000000
****
}

set {
opt_type min
reference rhf
freeze_core true
e_convergence 10
d_convergence 10
ensure_bt_convergence true
dft_spherical_points 590
dft_radial_points 99
}

e = energy('b3lyp')

print_out('Grab this energy {0}'.format(e))
--------------------------------------------------------------------------

    Molecular point group: c1

    Geometry (in Bohr), charge = 0, multiplicity = 1:

       Center              X                  Y                   Z               Mass
    ------------   -----------------  -----------------  -----------------  -----------------
         C           -0.000011565563     0.006533348334     0.003537367786    12.000000000000
         C            0.002608551837    -0.002079906966    -2.483784239114    12.000000000000
         H           -1.240649184063    -1.248459687866    -3.523783934214     1.007825032230
         H            1.244149129737     1.234155204734    -3.538857195714     1.007825032230
         C           -0.002601255063    -0.002049841466     2.479760717786    12.000000000000
         H            1.240875899637    -1.248662481566     3.526662797586     1.007825032230
         H           -1.244325017563     1.234347712434     3.541766879286     1.007825032230

  Charge       = 0
  Multiplicity = 1
  Basis Set: ANONYMOUS49F0DEAA
    Blend: 6-31G_2DFP_
  Basis Set: (ANONYMOUS49F0DEAA AUX)
    Blend: DEF2-UNIVERSAL-JKFIT

    Orbital Energies [Eh]
    ---------------------

    Doubly Occupied:

       1A    -10.201507     2A    -10.184760     3A    -10.184521
       4A     -0.784878     5A     -0.699873     6A     -0.519287
       7A     -0.446526     8A     -0.441073     9A     -0.440836
      10A     -0.264161    11A     -0.262802

  @DF-RKS Final Energy:  -116.66709840521688

   => Energetics <=

    Nuclear Repulsion Energy =             59.0066630585415197
    One-Electron Energy =                -272.1740094675575961
    Two-Electron Energy =                 110.8317258810072730
    DFT Exchange-Correlation Energy =     -14.3314778772080533
    Empirical Dispersion Energy =           0.0000000000000000
    VV10 Nonlocal Energy =                  0.0000000000000000
    Total Energy =                       -116.6670984052168762

  Dipole Moment: [D]
     X:     0.0000      Y:    -0.0050      Z:     0.0085     Total:     0.0099

*** Psi4 exiting successfully. Buy a developer a beer!
