                               Psi4 1.4a2.dev629

  ==> Input File <==

--------------------------------------------------------------------------
import os
memory 14 GB

molecule {
 X   -1.4143692725   -1.4140578475    0.0000000000
 C    0.0011913995   -0.0000005897    0.0000000001
 X    1.4140555918   -1.4143715282    0.0000000000
 C   -0.0007547730   -0.0035971493   -2.4817853708
 H   -1.2417109309   -1.2407270226   -3.5325774730
 H    1.2420265992    1.2434026032   -3.5329954208
 C   -0.0007550724    0.0035975554    2.4817853685
 H    1.2422055876   -1.2432227923    3.5329962462
 H   -1.2418891294    1.2405496511    3.5325766498
units bohr
}

basis {

assign 6-31g_2dfp_

[ 6-31g_2dfp_ ]
spherical

!----------------------------------------------------------------------
! Basis Set Exchange
! Version v0.8.13
! https://www.basissetexchange.org
!----------------------------------------------------------------------
!   Basis set: 6-31G(2df,p)
! Description: 6-31G(2df,p)
!        Role: orbital
!     Version: 0  (Data from the original Basis Set Exchange)
!----------------------------------------------------------------------

****
H     0
S    3   1.00
     18.7311370              0.03349460
      2.8253937              0.23472695
      0.6401217              0.81375733
S    1   1.00
      0.1612778              1.00000000
P    1   1.00
      1.5000000              1.0000000
P    1   1.00
      0.3750000              1.0000000
****
C     0
S    6   1.00
   3047.5249000              0.0018347
    457.3695100              0.0140373
    103.9486900              0.0688426
     29.2101550              0.2321844
      9.2866630              0.4679413
      3.1639270              0.3623120
SP   3   1.00
      7.8682724             -0.1193324              0.0689991
      1.8812885             -0.1608542              0.3164240
      0.5442493              1.1434564              0.7443083
SP   1   1.00
      0.1687144              1.0000000              1.0000000
D    1   1.00
      1.2520000              1.0000000
D    1   1.00
      0.3130000              1.0000000
F    1   1.00
      0.8000000              1.0000000
****
}

set {
opt_type min
reference rhf
freeze_core true
e_convergence 10
d_convergence 10
ensure_bt_convergence true
dft_spherical_points 590
dft_radial_points 99
}

e = energy('b3lyp')

print_out('Grab this energy {0}'.format(e))
--------------------------------------------------------------------------

    Molecular point group: c1

    Geometry (in Bohr), charge = 0, multiplicity = 1:

       Center              X                  Y                   Z               Mass
    ------------   -----------------  -----------------  -----------------  -----------------
         C            0.001270944203    -0.000000596077     0.000000000704    12.000000000000
         C           -0.000675228297    -0.003597155677    -2.481785370196    12.000000000000
         H           -1.241631386197    -1.240727028977    -3.532577472396     1.007825032230
         H            1.242106143903     1.243402596823    -3.532995420196     1.007825032230
         C           -0.000675527697     0.003597549023     2.481785369104    12.000000000000
         H            1.242285132303    -1.243222798677     3.532996246804     1.007825032230
         H           -1.241809584697     1.240549644723     3.532576650404     1.007825032230

  Charge       = 0
  Multiplicity = 1
  Basis Set: ANONYMOUSA09B51EF
    Blend: 6-31G_2DFP_
  Basis Set: (ANONYMOUSA09B51EF AUX)
    Blend: DEF2-UNIVERSAL-JKFIT

    Orbital Energies [Eh]
    ---------------------

    Doubly Occupied:

       1A    -10.201511     2A    -10.184657     3A    -10.184627
       4A     -0.784870     5A     -0.699880     6A     -0.519294
       7A     -0.446576     8A     -0.440949     9A     -0.440910
      10A     -0.263482    11A     -0.263480

  @DF-RKS Final Energy:  -116.66711192967563

   => Energetics <=

    Nuclear Repulsion Energy =             59.0064753039628869
    One-Electron Energy =                -272.1736437891602236
    Two-Electron Energy =                 110.8315262731188824
    DFT Exchange-Correlation Energy =     -14.3314697175971553
    Empirical Dispersion Energy =           0.0000000000000000
    VV10 Nonlocal Energy =                  0.0000000000000000
    Total Energy =                       -116.6671119296756274

  Dipole Moment: [D]
     X:    -0.0050      Y:     0.0000      Z:    -0.0000     Total:     0.0050

*** Psi4 exiting successfully. Buy a developer a beer!
