                               Psi4 1.4a2.dev629

  ==> Input File <==

--------------------------------------------------------------------------
import os
memory 14 GB

molecule {
 X   -1.4158310125   -1.4125961075    0.0000000000
 C    0.0053541301   -0.0000100887   -0.0000000015
 X    1.4126031072   -1.4158240128    0.0000000000
 C    0.0013697527    0.0002720369   -2.4853638112
 H   -1.2420716303   -1.2431375271   -3.5325877824
 H    1.2396345966    1.2422392413   -3.5305605070
 C    0.0013732803   -0.0002742401    2.4853638158
 H    1.2414747932   -1.2403988080    3.5305708704
 H   -1.2439070174    1.2413023860    3.5325774159
units bohr
}

basis {

assign 6-31g_2dfp_

[ 6-31g_2dfp_ ]
spherical

!----------------------------------------------------------------------
! Basis Set Exchange
! Version v0.8.13
! https://www.basissetexchange.org
!----------------------------------------------------------------------
!   Basis set: 6-31G(2df,p)
! Description: 6-31G(2df,p)
!        Role: orbital
!     Version: 0  (Data from the original Basis Set Exchange)
!----------------------------------------------------------------------

****
H     0
S    3   1.00
     18.7311370              0.03349460
      2.8253937              0.23472695
      0.6401217              0.81375733
S    1   1.00
      0.1612778              1.00000000
P    1   1.00
      1.5000000              1.0000000
P    1   1.00
      0.3750000              1.0000000
****
C     0
S    6   1.00
   3047.5249000              0.0018347
    457.3695100              0.0140373
    103.9486900              0.0688426
     29.2101550              0.2321844
      9.2866630              0.4679413
      3.1639270              0.3623120
SP   3   1.00
      7.8682724             -0.1193324              0.0689991
      1.8812885             -0.1608542              0.3164240
      0.5442493              1.1434564              0.7443083
SP   1   1.00
      0.1687144              1.0000000              1.0000000
D    1   1.00
      1.2520000              1.0000000
D    1   1.00
      0.3130000              1.0000000
F    1   1.00
      0.8000000              1.0000000
****
}

set {
opt_type min
reference rhf
freeze_core true
e_convergence 10
d_convergence 10
ensure_bt_convergence true
dft_spherical_points 590
dft_radial_points 99
}

e = energy('b3lyp')

print_out('Grab this energy {0}'.format(e))
--------------------------------------------------------------------------

    Molecular point group: c1

    Geometry (in Bohr), charge = 0, multiplicity = 1:

       Center              X                  Y                   Z               Mass
    ------------   -----------------  -----------------  -----------------  -----------------
         C            0.003049468575    -0.000006537249    -0.000000002351    12.000000000000
         C           -0.000934908825     0.000275588351    -2.485363812051    12.000000000000
         H           -1.244376291825    -1.243133975649    -3.532587783251     1.007825032230
         H            1.237329935075     1.242242792751    -3.530560507851     1.007825032230
         C           -0.000931381225    -0.000270688649     2.485363814949    12.000000000000
         H            1.239170131675    -1.240395256549     3.530570869549     1.007825032230
         H           -1.246211678925     1.241305937451     3.532577415049     1.007825032230

  Charge       = 0
  Multiplicity = 1
  Basis Set: ANONYMOUS2DB894F8
    Blend: 6-31G_2DFP_
  Basis Set: (ANONYMOUS2DB894F8 AUX)
    Blend: DEF2-UNIVERSAL-JKFIT

    Orbital Energies [Eh]
    ---------------------

    Doubly Occupied:

       1A    -10.202010     2A    -10.184705     3A    -10.184673
       4A     -0.784493     5A     -0.699856     6A     -0.519346
       7A     -0.446091     8A     -0.441387     9A     -0.441385
      10A     -0.263314    11A     -0.263313

  @DF-RKS Final Energy:  -116.66697114668790

   => Energetics <=

    Nuclear Repulsion Energy =             58.9705000570672766
    One-Electron Energy =                -272.1009684780412954
    Two-Electron Energy =                 110.7946084675112530
    DFT Exchange-Correlation Energy =     -14.3311111932251407
    Empirical Dispersion Energy =           0.0000000000000000
    VV10 Nonlocal Energy =                  0.0000000000000000
    Total Energy =                       -116.6669711466878994

  Dipole Moment: [D]
     X:    -0.0020      Y:     0.0000      Z:    -0.0000     Total:     0.0020

*** Psi4 exiting successfully. Buy a developer a beer!
