                               Psi4 1.4a2.dev629

  ==> Input File <==

--------------------------------------------------------------------------
import os
memory 14 GB

molecule {
 X   -1.4137339193   -1.4146932007   -0.0000000000
 C   -0.0000018030    0.0056890973    0.0060729392
 X    1.4137382704   -1.4146888496   -0.0000000000
 C   -0.0002167605    0.0007068209   -2.4800336532
 H   -1.2412794813   -1.2461935000   -3.5369413864
 H    1.2402013977    1.2431148272   -3.5334305567
 C    0.0002092618    0.0007116801    2.4835338162
 H    1.2398089361   -1.2447230953    3.5321433275
 H   -1.2387259020    1.2416491001    3.5286555134
units bohr
}

basis {

assign 6-31g_2dfp_

[ 6-31g_2dfp_ ]
spherical

!----------------------------------------------------------------------
! Basis Set Exchange
! Version v0.8.13
! https://www.basissetexchange.org
!----------------------------------------------------------------------
!   Basis set: 6-31G(2df,p)
! Description: 6-31G(2df,p)
!        Role: orbital
!     Version: 0  (Data from the original Basis Set Exchange)
!----------------------------------------------------------------------

****
H     0
S    3   1.00
     18.7311370              0.03349460
      2.8253937              0.23472695
      0.6401217              0.81375733
S    1   1.00
      0.1612778              1.00000000
P    1   1.00
      1.5000000              1.0000000
P    1   1.00
      0.3750000              1.0000000
****
C     0
S    6   1.00
   3047.5249000              0.0018347
    457.3695100              0.0140373
    103.9486900              0.0688426
     29.2101550              0.2321844
      9.2866630              0.4679413
      3.1639270              0.3623120
SP   3   1.00
      7.8682724             -0.1193324              0.0689991
      1.8812885             -0.1608542              0.3164240
      0.5442493              1.1434564              0.7443083
SP   1   1.00
      0.1687144              1.0000000              1.0000000
D    1   1.00
      1.2520000              1.0000000
D    1   1.00
      0.3130000              1.0000000
F    1   1.00
      0.8000000              1.0000000
****
}

set {
opt_type min
reference rhf
freeze_core true
e_convergence 10
d_convergence 10
ensure_bt_convergence true
dft_spherical_points 590
dft_radial_points 99
}

e = energy('b3lyp')

print_out('Grab this energy {0}'.format(e))
--------------------------------------------------------------------------

    Molecular point group: c1

    Geometry (in Bohr), charge = 0, multiplicity = 1:

       Center              X                  Y                   Z               Mass
    ------------   -----------------  -----------------  -----------------  -----------------
         C            0.000000860695     0.003713384133     0.003444265786    12.000000000000
         C           -0.000214096805    -0.001268892267    -2.482662326614    12.000000000000
         H           -1.241276817605    -1.248169213167    -3.539570059814     1.007825032230
         H            1.240204061395     1.241139114033    -3.536059230114     1.007825032230
         C            0.000211925495    -0.001264033067     2.480905142786    12.000000000000
         H            1.239811599795    -1.246698808467     3.529514654086     1.007825032230
         H           -1.238723238305     1.239673386933     3.526026839986     1.007825032230

  Charge       = 0
  Multiplicity = 1
  Basis Set: ANONYMOUSD4044B24
    Blend: 6-31G_2DFP_
  Basis Set: (ANONYMOUSD4044B24 AUX)
    Blend: DEF2-UNIVERSAL-JKFIT

    Orbital Energies [Eh]
    ---------------------

    Doubly Occupied:

       1A    -10.201509     2A    -10.185103     3A    -10.184179
       4A     -0.784881     5A     -0.699870     6A     -0.519288
       7A     -0.446528     8A     -0.441801     9A     -0.440109
      10A     -0.264045    11A     -0.262919

  @DF-RKS Final Energy:  -116.66709501926502

   => Energetics <=

    Nuclear Repulsion Energy =             59.0065993871718888
    One-Electron Energy =                -272.1738602402874676
    Two-Electron Energy =                 110.8316418737264257
    DFT Exchange-Correlation Energy =     -14.3314760398758594
    Empirical Dispersion Energy =           0.0000000000000000
    VV10 Nonlocal Energy =                  0.0000000000000000
    Total Energy =                       -116.6670950192650196

  Dipole Moment: [D]
     X:     0.0000      Y:    -0.0023      Z:     0.0074     Total:     0.0078

*** Psi4 exiting successfully. Buy a developer a beer!
