                               Psi4 1.4a2.dev629

  ==> Input File <==

--------------------------------------------------------------------------
import os
memory 14 GB

molecule {
 X   -1.4120196719   -1.4164074481    0.0000000000
 C    0.0026401027   -0.0030366502   -0.0000012405
 X    1.4187857736   -1.4096413464    0.0000000000
 C   -0.0014617081   -0.0021884921   -2.4817864458
 H   -1.2435169792   -1.2421275211   -3.5360128189
 H    1.2405066169    1.2417079311   -3.5295697280
 C   -0.0006932060    0.0000085247    2.4817833928
 H    1.2360326328   -1.2441345673    3.5285895308
 H   -1.2402735609    1.2473924493    3.5369973096
units bohr
}

basis {

assign 6-31g_2dfp_

[ 6-31g_2dfp_ ]
spherical

!----------------------------------------------------------------------
! Basis Set Exchange
! Version v0.8.13
! https://www.basissetexchange.org
!----------------------------------------------------------------------
!   Basis set: 6-31G(2df,p)
! Description: 6-31G(2df,p)
!        Role: orbital
!     Version: 0  (Data from the original Basis Set Exchange)
!----------------------------------------------------------------------

****
H     0
S    3   1.00
     18.7311370              0.03349460
      2.8253937              0.23472695
      0.6401217              0.81375733
S    1   1.00
      0.1612778              1.00000000
P    1   1.00
      1.5000000              1.0000000
P    1   1.00
      0.3750000              1.0000000
****
C     0
S    6   1.00
   3047.5249000              0.0018347
    457.3695100              0.0140373
    103.9486900              0.0688426
     29.2101550              0.2321844
      9.2866630              0.4679413
      3.1639270              0.3623120
SP   3   1.00
      7.8682724             -0.1193324              0.0689991
      1.8812885             -0.1608542              0.3164240
      0.5442493              1.1434564              0.7443083
SP   1   1.00
      0.1687144              1.0000000              1.0000000
D    1   1.00
      1.2520000              1.0000000
D    1   1.00
      0.3130000              1.0000000
F    1   1.00
      0.8000000              1.0000000
****
}

set {
opt_type min
reference rhf
freeze_core true
e_convergence 10
d_convergence 10
ensure_bt_convergence true
dft_spherical_points 590
dft_radial_points 99
}

e = energy('b3lyp')

print_out('Grab this energy {0}'.format(e))
--------------------------------------------------------------------------

    Molecular point group: c1

    Geometry (in Bohr), charge = 0, multiplicity = 1:

       Center              X                  Y                   Z               Mass
    ------------   -----------------  -----------------  -----------------  -----------------
         C            0.002677217877    -0.001544345197    -0.000000061550    12.000000000000
         C           -0.001424592923    -0.000696187097    -2.481785266850    12.000000000000
         H           -1.243479864023    -1.240635216097    -3.536011639950     1.007825032230
         H            1.240543732077     1.243200236103    -3.529568549050     1.007825032230
         C           -0.000656090823     0.001500829703     2.481784571750    12.000000000000
         H            1.236069747977    -1.242642262297     3.528590709750     1.007825032230
         H           -1.240236445723     1.248884754303     3.536998488550     1.007825032230

  Charge       = 0
  Multiplicity = 1
  Basis Set: ANONYMOUSE56D4B72
    Blend: 6-31G_2DFP_
  Basis Set: (ANONYMOUSE56D4B72 AUX)
    Blend: DEF2-UNIVERSAL-JKFIT

    Orbital Energies [Eh]
    ---------------------

    Doubly Occupied:

       1A    -10.201510     2A    -10.184656     3A    -10.184626
       4A     -0.784871     5A     -0.699880     6A     -0.519288
       7A     -0.446533     8A     -0.441005     9A     -0.440898
      10A     -0.263648    11A     -0.263314

  @DF-RKS Final Energy:  -116.66711358921910

   => Energetics <=

    Nuclear Repulsion Energy =             59.0064690125542626
    One-Electron Energy =                -272.1736490005994824
    Two-Electron Energy =                 110.8315351901919144
    DFT Exchange-Correlation Energy =     -14.3314687913657757
    Empirical Dispersion Energy =           0.0000000000000000
    VV10 Nonlocal Energy =                  0.0000000000000000
    Total Energy =                       -116.6671135892190989

  Dipole Moment: [D]
     X:    -0.0015      Y:     0.0009      Z:    -0.0000     Total:     0.0017

*** Psi4 exiting successfully. Buy a developer a beer!
