                               Psi4 1.4a2.dev629

  ==> Input File <==

--------------------------------------------------------------------------
import os
memory 14 GB

molecule {
 X   -1.4193208924   -1.4091062276   -0.0000000000
 C    0.0007377619   -0.0015876840   -0.0000004131
 X    1.4192988059   -1.4091283141    0.0000000000
 C   -0.0028066726   -0.0008247300   -2.4817865048
 H   -1.2440439757   -1.2421216535   -3.5375762741
 H    1.2426656955    1.2390121128   -3.5280104595
 C    0.0003297194   -0.0033154597    2.4817876919
 H    1.2449371503   -1.2412318513    3.5375692889
 H   -1.2417975924    1.2398766874    3.5280166706
units bohr
}

basis {

assign 6-31g_2dfp_

[ 6-31g_2dfp_ ]
spherical

!----------------------------------------------------------------------
! Basis Set Exchange
! Version v0.8.13
! https://www.basissetexchange.org
!----------------------------------------------------------------------
!   Basis set: 6-31G(2df,p)
! Description: 6-31G(2df,p)
!        Role: orbital
!     Version: 0  (Data from the original Basis Set Exchange)
!----------------------------------------------------------------------

****
H     0
S    3   1.00
     18.7311370              0.03349460
      2.8253937              0.23472695
      0.6401217              0.81375733
S    1   1.00
      0.1612778              1.00000000
P    1   1.00
      1.5000000              1.0000000
P    1   1.00
      0.3750000              1.0000000
****
C     0
S    6   1.00
   3047.5249000              0.0018347
    457.3695100              0.0140373
    103.9486900              0.0688426
     29.2101550              0.2321844
      9.2866630              0.4679413
      3.1639270              0.3623120
SP   3   1.00
      7.8682724             -0.1193324              0.0689991
      1.8812885             -0.1608542              0.3164240
      0.5442493              1.1434564              0.7443083
SP   1   1.00
      0.1687144              1.0000000              1.0000000
D    1   1.00
      1.2520000              1.0000000
D    1   1.00
      0.3130000              1.0000000
F    1   1.00
      0.8000000              1.0000000
****
}

set {
opt_type min
reference rhf
freeze_core true
e_convergence 10
d_convergence 10
ensure_bt_convergence true
dft_spherical_points 590
dft_radial_points 99
}

e = energy('b3lyp')

print_out('Grab this energy {0}'.format(e))
--------------------------------------------------------------------------

    Molecular point group: c1

    Geometry (in Bohr), charge = 0, multiplicity = 1:

       Center              X                  Y                   Z               Mass
    ------------   -----------------  -----------------  -----------------  -----------------
         C            0.001214769536     0.000241737608    -0.000000625630    12.000000000000
         C           -0.002329664964     0.001004691608    -2.481786717330    12.000000000000
         H           -1.243566968064    -1.240292231892    -3.537576486630     1.007825032230
         H            1.243142703136     1.240841534408    -3.528010672030     1.007825032230
         C            0.000806727036    -0.001486038092     2.481787479370    12.000000000000
         H            1.245414157936    -1.239402429692     3.537569076370     1.007825032230
         H           -1.241320584764     1.241706109008     3.528016458070     1.007825032230

  Charge       = 0
  Multiplicity = 1
  Basis Set: ANONYMOUSF2A49D47
    Blend: 6-31G_2DFP_
  Basis Set: (ANONYMOUSF2A49D47 AUX)
    Blend: DEF2-UNIVERSAL-JKFIT

    Orbital Energies [Eh]
    ---------------------

    Doubly Occupied:

       1A    -10.201510     2A    -10.184656     3A    -10.184627
       4A     -0.784870     5A     -0.699880     6A     -0.519287
       7A     -0.446532     8A     -0.440992     9A     -0.440913
      10A     -0.263605    11A     -0.263357

  @DF-RKS Final Energy:  -116.66711827998635

   => Energetics <=

    Nuclear Repulsion Energy =             59.0064472038121934
    One-Electron Energy =                -272.1736137898915331
    Two-Electron Energy =                 110.8315154352179803
    DFT Exchange-Correlation Energy =     -14.3314671291250058
    Empirical Dispersion Energy =           0.0000000000000000
    VV10 Nonlocal Energy =                  0.0000000000000000
    Total Energy =                       -116.6671182799863544

  Dipole Moment: [D]
     X:     0.0022      Y:     0.0003      Z:     0.0000     Total:     0.0023

*** Psi4 exiting successfully. Buy a developer a beer!
