                               Psi4 1.4a2.dev629

  ==> Input File <==

--------------------------------------------------------------------------
import os
memory 14 GB

molecule {
 X   -1.4140021975   -1.4144249225    0.0000000000
 C    0.0066892681   -0.0000139453   -0.0000000113
 X    1.4144572458   -1.4139698742   -0.0000000000
 C    0.0018332459    0.0039436486   -2.4817808450
 H   -1.2447641460   -1.2389921470   -3.5207980445
 H    1.2393560837    1.2446409251   -3.5447612844
 C    0.0018348098   -0.0039543504    2.4817808528
 H    1.2390988460   -1.2449038075    3.5447681859
 H   -1.2445031557    1.2392473531    3.5207911464
units bohr
}

basis {

assign 6-31g_2dfp_

[ 6-31g_2dfp_ ]
spherical

!----------------------------------------------------------------------
! Basis Set Exchange
! Version v0.8.13
! https://www.basissetexchange.org
!----------------------------------------------------------------------
!   Basis set: 6-31G(2df,p)
! Description: 6-31G(2df,p)
!        Role: orbital
!     Version: 0  (Data from the original Basis Set Exchange)
!----------------------------------------------------------------------

****
H     0
S    3   1.00
     18.7311370              0.03349460
      2.8253937              0.23472695
      0.6401217              0.81375733
S    1   1.00
      0.1612778              1.00000000
P    1   1.00
      1.5000000              1.0000000
P    1   1.00
      0.3750000              1.0000000
****
C     0
S    6   1.00
   3047.5249000              0.0018347
    457.3695100              0.0140373
    103.9486900              0.0688426
     29.2101550              0.2321844
      9.2866630              0.4679413
      3.1639270              0.3623120
SP   3   1.00
      7.8682724             -0.1193324              0.0689991
      1.8812885             -0.1608542              0.3164240
      0.5442493              1.1434564              0.7443083
SP   1   1.00
      0.1687144              1.0000000              1.0000000
D    1   1.00
      1.2520000              1.0000000
D    1   1.00
      0.3130000              1.0000000
F    1   1.00
      0.8000000              1.0000000
****
}

set {
opt_type min
reference rhf
freeze_core true
e_convergence 10
d_convergence 10
ensure_bt_convergence true
dft_spherical_points 590
dft_radial_points 99
}

e = energy('b3lyp')

print_out('Grab this energy {0}'.format(e))
--------------------------------------------------------------------------

    Molecular point group: c1

    Geometry (in Bohr), charge = 0, multiplicity = 1:

       Center              X                  Y                   Z               Mass
    ------------   -----------------  -----------------  -----------------  -----------------
         C            0.003856711923    -0.000006363693    -0.000000010336    12.000000000000
         C           -0.000999310277     0.003951230207    -2.481780844036    12.000000000000
         H           -1.247596702177    -1.238984565393    -3.520798043536     1.007825032230
         H            1.236523527523     1.244648506707    -3.544761283436     1.007825032230
         C           -0.000997746377    -0.003946768793     2.481780853764    12.000000000000
         H            1.236266289823    -1.244896225893     3.544768186864     1.007825032230
         H           -1.247335711877     1.239254934707     3.520791147364     1.007825032230

  Charge       = 0
  Multiplicity = 1
  Basis Set: ANONYMOUS2D79641E
    Blend: 6-31G_2DFP_
  Basis Set: (ANONYMOUS2D79641E AUX)
    Blend: DEF2-UNIVERSAL-JKFIT

    Orbital Energies [Eh]
    ---------------------

    Doubly Occupied:

       1A    -10.201511     2A    -10.184656     3A    -10.184626
       4A     -0.784873     5A     -0.699881     6A     -0.519285
       7A     -0.446533     8A     -0.440953     9A     -0.440949
      10A     -0.263482    11A     -0.263479

  @DF-RKS Final Energy:  -116.66710922378437

   => Energetics <=

    Nuclear Repulsion Energy =             59.0065342477336046
    One-Electron Energy =                -272.1737701343392928
    Two-Electron Energy =                 110.8315948648271956
    DFT Exchange-Correlation Energy =     -14.3314682020058761
    Empirical Dispersion Energy =           0.0000000000000000
    VV10 Nonlocal Energy =                  0.0000000000000000
    Total Energy =                       -116.6671092237843652

  Dipole Moment: [D]
     X:    -0.0036      Y:     0.0000      Z:    -0.0000     Total:     0.0036

*** Psi4 exiting successfully. Buy a developer a beer!
