                               Psi4 1.4a2.dev629

  ==> Input File <==

--------------------------------------------------------------------------
import os
memory 14 GB

molecule {
 X   -1.4108225316   -1.4176045884    0.0000000000
 C    0.0026379575    0.0000046976   -0.0000000002
 X    1.4175989001   -1.4108282199    0.0000000000
 C   -0.0010769945   -0.0010975283   -2.4826051184
 H   -1.2493961975   -1.2446477676   -3.5365441568
 H    1.2457685402    1.2428042280   -3.5291137381
 C   -0.0010777968    0.0011006646    2.4826051195
 H    1.2419083303   -1.2466633750    3.5291069340
 H   -1.2455402078    1.2485047690    3.5365509600
units bohr
}

basis {

assign 6-31g_2dfp_

[ 6-31g_2dfp_ ]
spherical

!----------------------------------------------------------------------
! Basis Set Exchange
! Version v0.8.13
! https://www.basissetexchange.org
!----------------------------------------------------------------------
!   Basis set: 6-31G(2df,p)
! Description: 6-31G(2df,p)
!        Role: orbital
!     Version: 0  (Data from the original Basis Set Exchange)
!----------------------------------------------------------------------

****
H     0
S    3   1.00
     18.7311370              0.03349460
      2.8253937              0.23472695
      0.6401217              0.81375733
S    1   1.00
      0.1612778              1.00000000
P    1   1.00
      1.5000000              1.0000000
P    1   1.00
      0.3750000              1.0000000
****
C     0
S    6   1.00
   3047.5249000              0.0018347
    457.3695100              0.0140373
    103.9486900              0.0688426
     29.2101550              0.2321844
      9.2866630              0.4679413
      3.1639270              0.3623120
SP   3   1.00
      7.8682724             -0.1193324              0.0689991
      1.8812885             -0.1608542              0.3164240
      0.5442493              1.1434564              0.7443083
SP   1   1.00
      0.1687144              1.0000000              1.0000000
D    1   1.00
      1.2520000              1.0000000
D    1   1.00
      0.3130000              1.0000000
F    1   1.00
      0.8000000              1.0000000
****
}

set {
opt_type min
reference rhf
freeze_core true
e_convergence 10
d_convergence 10
ensure_bt_convergence true
dft_spherical_points 590
dft_radial_points 99
}

e = energy('b3lyp')

print_out('Grab this energy {0}'.format(e))
--------------------------------------------------------------------------

    Molecular point group: c1

    Geometry (in Bohr), charge = 0, multiplicity = 1:

       Center              X                  Y                   Z               Mass
    ------------   -----------------  -----------------  -----------------  -----------------
         C            0.002675886483     0.000002403285    -0.000000000447    12.000000000000
         C           -0.001039065517    -0.001099822615    -2.482605118647    12.000000000000
         H           -1.249358268517    -1.244650061915    -3.536544157047     1.007825032230
         H            1.245806469183     1.242801933685    -3.529113738347     1.007825032230
         C           -0.001039867817     0.001098370285     2.482605119253    12.000000000000
         H            1.241946259283    -1.246665669315     3.529106933753     1.007825032230
         H           -1.245502278817     1.248502474685     3.536550959753     1.007825032230

  Charge       = 0
  Multiplicity = 1
  Basis Set: ANONYMOUS7D38EB12
    Blend: 6-31G_2DFP_
  Basis Set: (ANONYMOUS7D38EB12 AUX)
    Blend: DEF2-UNIVERSAL-JKFIT

    Orbital Energies [Eh]
    ---------------------

    Doubly Occupied:

       1A    -10.201586     2A    -10.185143     3A    -10.185114
       4A     -0.784668     5A     -0.699518     6A     -0.518572
       7A     -0.445957     8A     -0.440741     9A     -0.440741
      10A     -0.263417    11A     -0.263415

  @DF-RKS Final Energy:  -116.66708925623637

   => Energetics <=

    Nuclear Repulsion Energy =             58.9642656944909476
    One-Electron Energy =                -272.0939765947733804
    Two-Electron Energy =                 110.7911305481645030
    DFT Exchange-Correlation Energy =     -14.3285089041184506
    Empirical Dispersion Energy =           0.0000000000000000
    VV10 Nonlocal Energy =                  0.0000000000000000
    Total Energy =                       -116.6670892562363662

  Dipole Moment: [D]
     X:    -0.0015      Y:    -0.0000      Z:     0.0000     Total:     0.0015

*** Psi4 exiting successfully. Buy a developer a beer!
