                               Psi4 1.4a2.dev629

  ==> Input File <==

--------------------------------------------------------------------------
import os
memory 14 GB

molecule {
 X   -1.4144018387   -1.4140252813    0.0000000000
 C    0.0000049916   -0.0019413753   -0.0016349867
 X    1.4144048327   -1.4140222873   -0.0000000000
 C    0.0023459124    0.0019791072   -2.4826985849
 H   -1.2463413438   -1.2463659967   -3.5321002629
 H    1.2445500248    1.2451763868   -3.5317268170
 C   -0.0023443140    0.0019738194    2.4808704943
 H    1.2390530398   -1.2390918353    3.5338539852
 H   -1.2372713047    1.2378903426    3.5334361720
units bohr
}

basis {

assign 6-31g_2dfp_

[ 6-31g_2dfp_ ]
spherical

!----------------------------------------------------------------------
! Basis Set Exchange
! Version v0.8.13
! https://www.basissetexchange.org
!----------------------------------------------------------------------
!   Basis set: 6-31G(2df,p)
! Description: 6-31G(2df,p)
!        Role: orbital
!     Version: 0  (Data from the original Basis Set Exchange)
!----------------------------------------------------------------------

****
H     0
S    3   1.00
     18.7311370              0.03349460
      2.8253937              0.23472695
      0.6401217              0.81375733
S    1   1.00
      0.1612778              1.00000000
P    1   1.00
      1.5000000              1.0000000
P    1   1.00
      0.3750000              1.0000000
****
C     0
S    6   1.00
   3047.5249000              0.0018347
    457.3695100              0.0140373
    103.9486900              0.0688426
     29.2101550              0.2321844
      9.2866630              0.4679413
      3.1639270              0.3623120
SP   3   1.00
      7.8682724             -0.1193324              0.0689991
      1.8812885             -0.1608542              0.3164240
      0.5442493              1.1434564              0.7443083
SP   1   1.00
      0.1687144              1.0000000              1.0000000
D    1   1.00
      1.2520000              1.0000000
D    1   1.00
      0.3130000              1.0000000
F    1   1.00
      0.8000000              1.0000000
****
}

set {
opt_type min
reference rhf
freeze_core true
e_convergence 10
d_convergence 10
ensure_bt_convergence true
dft_spherical_points 590
dft_radial_points 99
}

e = energy('b3lyp')

print_out('Grab this energy {0}'.format(e))
--------------------------------------------------------------------------

    Molecular point group: c1

    Geometry (in Bohr), charge = 0, multiplicity = 1:

       Center              X                  Y                   Z               Mass
    ------------   -----------------  -----------------  -----------------  -----------------
         C            0.000003257429    -0.002484170625    -0.000684062011    12.000000000000
         C            0.002344178229     0.001436311875    -2.481747660211    12.000000000000
         H           -1.246343077971    -1.246908792025    -3.531149338211     1.007825032230
         H            1.244548290629     1.244633591475    -3.530775892311     1.007825032230
         C           -0.002346048171     0.001431024075     2.481821418989    12.000000000000
         H            1.239051305629    -1.239634630625     3.534804909889     1.007825032230
         H           -1.237273038871     1.237347547275     3.534387096689     1.007825032230

  Charge       = 0
  Multiplicity = 1
  Basis Set: ANONYMOUS96F95AD5
    Blend: 6-31G_2DFP_
  Basis Set: (ANONYMOUS96F95AD5 AUX)
    Blend: DEF2-UNIVERSAL-JKFIT

    Orbital Energies [Eh]
    ---------------------

    Doubly Occupied:

       1A    -10.201510     2A    -10.184968     3A    -10.184314
       4A     -0.784871     5A     -0.699881     6A     -0.519299
       7A     -0.446582     8A     -0.440953     9A     -0.440894
      10A     -0.263598    11A     -0.263364

  @DF-RKS Final Energy:  -116.66709971416374

   => Energetics <=

    Nuclear Repulsion Energy =             59.0065292860172619
    One-Electron Energy =                -272.1737263981034403
    Two-Electron Energy =                 110.8315702605933097
    DFT Exchange-Correlation Energy =     -14.3314728626708785
    Empirical Dispersion Energy =           0.0000000000000000
    VV10 Nonlocal Energy =                  0.0000000000000000
    Total Energy =                       -116.6670997141637400

  Dipole Moment: [D]
     X:     0.0000      Y:     0.0027      Z:     0.0016     Total:     0.0031

*** Psi4 exiting successfully. Buy a developer a beer!
