                               Psi4 1.4a2.dev629

  ==> Input File <==

--------------------------------------------------------------------------
import os
memory 14 GB

molecule {
 X   -1.4142134867   -1.4142136333    0.0000000000
 C    0.0007301581    0.0007302274    0.0000027463
 X    1.4141811513   -1.4142459687    0.0000000000
 C    0.0000037762    0.0000038529   -2.4817857811
 H   -1.2419620742   -1.2419597804   -3.5328071752
 H    1.2419738958    1.2419716095   -3.5327776070
 C   -0.0024817120   -0.0024818094    2.4817873293
 H    1.2428675431   -1.2410600964    3.5327902719
 H   -1.2410992516    1.2428284784    3.5327902158
units bohr
}

basis {

assign 6-31g_2dfp_

[ 6-31g_2dfp_ ]
spherical

!----------------------------------------------------------------------
! Basis Set Exchange
! Version v0.8.13
! https://www.basissetexchange.org
!----------------------------------------------------------------------
!   Basis set: 6-31G(2df,p)
! Description: 6-31G(2df,p)
!        Role: orbital
!     Version: 0  (Data from the original Basis Set Exchange)
!----------------------------------------------------------------------

****
H     0
S    3   1.00
     18.7311370              0.03349460
      2.8253937              0.23472695
      0.6401217              0.81375733
S    1   1.00
      0.1612778              1.00000000
P    1   1.00
      1.5000000              1.0000000
P    1   1.00
      0.3750000              1.0000000
****
C     0
S    6   1.00
   3047.5249000              0.0018347
    457.3695100              0.0140373
    103.9486900              0.0688426
     29.2101550              0.2321844
      9.2866630              0.4679413
      3.1639270              0.3623120
SP   3   1.00
      7.8682724             -0.1193324              0.0689991
      1.8812885             -0.1608542              0.3164240
      0.5442493              1.1434564              0.7443083
SP   1   1.00
      0.1687144              1.0000000              1.0000000
D    1   1.00
      1.2520000              1.0000000
D    1   1.00
      0.3130000              1.0000000
F    1   1.00
      0.8000000              1.0000000
****
}

set {
opt_type min
reference rhf
freeze_core true
e_convergence 10
d_convergence 10
ensure_bt_convergence true
dft_spherical_points 590
dft_radial_points 99
}

e = energy('b3lyp')

print_out('Grab this energy {0}'.format(e))
--------------------------------------------------------------------------

    Molecular point group: c1

    Geometry (in Bohr), charge = 0, multiplicity = 1:

       Center              X                  Y                   Z               Mass
    ------------   -----------------  -----------------  -----------------  -----------------
         C            0.001209265443     0.001209317708     0.000001567075    12.000000000000
         C            0.000482883543     0.000482943208    -2.481786960325    12.000000000000
         H           -1.241482966857    -1.241480690092    -3.532808354425     1.007825032230
         H            1.242453003143     1.242450699808    -3.532778786225     1.007825032230
         C           -0.002002604657    -0.002002719092     2.481786150075    12.000000000000
         H            1.243346650443    -1.240581006092     3.532789092675     1.007825032230
         H           -1.240620144257     1.243307568708     3.532789036575     1.007825032230

  Charge       = 0
  Multiplicity = 1
  Basis Set: ANONYMOUS12BDA842
    Blend: 6-31G_2DFP_
  Basis Set: (ANONYMOUS12BDA842 AUX)
    Blend: DEF2-UNIVERSAL-JKFIT

    Orbital Energies [Eh]
    ---------------------

    Doubly Occupied:

       1A    -10.201510     2A    -10.184657     3A    -10.184627
       4A     -0.784870     5A     -0.699879     6A     -0.519287
       7A     -0.446532     8A     -0.440953     9A     -0.440952
      10A     -0.263483    11A     -0.263481

  @DF-RKS Final Energy:  -116.66712202774571

   => Energetics <=

    Nuclear Repulsion Energy =             59.0064323209421033
    One-Electron Energy =                -272.1735909454729949
    Two-Electron Energy =                 110.8315032146331305
    DFT Exchange-Correlation Energy =     -14.3314666178479477
    Empirical Dispersion Energy =           0.0000000000000000
    VV10 Nonlocal Energy =                  0.0000000000000000
    Total Energy =                       -116.6671220277457053

  Dipole Moment: [D]
     X:     0.0023      Y:     0.0023      Z:    -0.0000     Total:     0.0032

*** Psi4 exiting successfully. Buy a developer a beer!
