                               Psi4 1.4a2.dev629

  ==> Input File <==

--------------------------------------------------------------------------
import os
memory 14 GB

molecule {
 X   -1.4114049107   -1.4170222093   -0.0000000000
 C   -0.0053469982    0.0030358613   -0.0000008139
 X    1.4146368436   -1.4137902764    0.0000000000
 C   -0.0009896868    0.0008205254   -2.4817847400
 H   -1.2438553132   -1.2394234555   -3.5322751020
 H    1.2456689523    1.2389069337   -3.5333034836
 C   -0.0017587063    0.0013600340    2.4817847662
 H    1.2444502887   -1.2421658729    3.5342936897
 H   -1.2414004694    1.2398513398    3.5312856836
units bohr
}

basis {

assign 6-31g_2dfp_

[ 6-31g_2dfp_ ]
spherical

!----------------------------------------------------------------------
! Basis Set Exchange
! Version v0.8.13
! https://www.basissetexchange.org
!----------------------------------------------------------------------
!   Basis set: 6-31G(2df,p)
! Description: 6-31G(2df,p)
!        Role: orbital
!     Version: 0  (Data from the original Basis Set Exchange)
!----------------------------------------------------------------------

****
H     0
S    3   1.00
     18.7311370              0.03349460
      2.8253937              0.23472695
      0.6401217              0.81375733
S    1   1.00
      0.1612778              1.00000000
P    1   1.00
      1.5000000              1.0000000
P    1   1.00
      0.3750000              1.0000000
****
C     0
S    6   1.00
   3047.5249000              0.0018347
    457.3695100              0.0140373
    103.9486900              0.0688426
     29.2101550              0.2321844
      9.2866630              0.4679413
      3.1639270              0.3623120
SP   3   1.00
      7.8682724             -0.1193324              0.0689991
      1.8812885             -0.1608542              0.3164240
      0.5442493              1.1434564              0.7443083
SP   1   1.00
      0.1687144              1.0000000              1.0000000
D    1   1.00
      1.2520000              1.0000000
D    1   1.00
      0.3130000              1.0000000
F    1   1.00
      0.8000000              1.0000000
****
}

set {
opt_type min
reference rhf
freeze_core true
e_convergence 10
d_convergence 10
ensure_bt_convergence true
dft_spherical_points 590
dft_radial_points 99
}

e = energy('b3lyp')

print_out('Grab this energy {0}'.format(e))
--------------------------------------------------------------------------

    Molecular point group: c1

    Geometry (in Bohr), charge = 0, multiplicity = 1:

       Center              X                  Y                   Z               Mass
    ------------   -----------------  -----------------  -----------------  -----------------
         C           -0.003042721792     0.001543433120    -0.000000597606    12.000000000000
         C            0.001314589608    -0.000671902780    -2.481784523706    12.000000000000
         H           -1.241551036792    -1.240915883680    -3.532274885706     1.007825032230
         H            1.247973228708     1.237414505520    -3.533303267306     1.007825032230
         C            0.000545570108    -0.000132394180     2.481784982494    12.000000000000
         H            1.246754565108    -1.243658301080     3.534293905994     1.007825032230
         H           -1.239096192992     1.238358911620     3.531285899894     1.007825032230

  Charge       = 0
  Multiplicity = 1
  Basis Set: ANONYMOUS4858E2E0
    Blend: 6-31G_2DFP_
  Basis Set: (ANONYMOUS4858E2E0 AUX)
    Blend: DEF2-UNIVERSAL-JKFIT

    Orbital Energies [Eh]
    ---------------------

    Doubly Occupied:

       1A    -10.201509     2A    -10.184656     3A    -10.184627
       4A     -0.784870     5A     -0.699879     6A     -0.519289
       7A     -0.446534     8A     -0.441004     9A     -0.440898
      10A     -0.263648    11A     -0.263315

  @DF-RKS Final Energy:  -116.66711461164046

   => Energetics <=

    Nuclear Repulsion Energy =             59.0064638626428533
    One-Electron Energy =                -272.1736378956711064
    Two-Electron Energy =                 110.8315286348746440
    DFT Exchange-Correlation Energy =     -14.3314692134868409
    Empirical Dispersion Energy =           0.0000000000000000
    VV10 Nonlocal Energy =                  0.0000000000000000
    Total Energy =                       -116.6671146116404572

  Dipole Moment: [D]
     X:     0.0019      Y:    -0.0009      Z:    -0.0000     Total:     0.0021

*** Psi4 exiting successfully. Buy a developer a beer!
