                               Psi4 1.4a2.dev629

  ==> Input File <==

--------------------------------------------------------------------------
import os
memory 14 GB

molecule {
 X   -1.4163106600   -1.4121164600    0.0000000000
 C    0.0053453946   -0.0056751814   -0.0000013206
 X    1.4130792508   -1.4153478692    0.0000000000
 C    0.0015891826   -0.0004396526   -2.4817816957
 H   -1.2436759230   -1.2398465787   -3.5320355065
 H    1.2423319087    1.2420107646   -3.5335340398
 C    0.0011601426   -0.0009765582    2.4817794425
 H    1.2430810380   -1.2371036654    3.5300133439
 H   -1.2466003345    1.2410680808    3.5355597761
units bohr
}

basis {

assign 6-31g_2dfp_

[ 6-31g_2dfp_ ]
spherical

!----------------------------------------------------------------------
! Basis Set Exchange
! Version v0.8.13
! https://www.basissetexchange.org
!----------------------------------------------------------------------
!   Basis set: 6-31G(2df,p)
! Description: 6-31G(2df,p)
!        Role: orbital
!     Version: 0  (Data from the original Basis Set Exchange)
!----------------------------------------------------------------------

****
H     0
S    3   1.00
     18.7311370              0.03349460
      2.8253937              0.23472695
      0.6401217              0.81375733
S    1   1.00
      0.1612778              1.00000000
P    1   1.00
      1.5000000              1.0000000
P    1   1.00
      0.3750000              1.0000000
****
C     0
S    6   1.00
   3047.5249000              0.0018347
    457.3695100              0.0140373
    103.9486900              0.0688426
     29.2101550              0.2321844
      9.2866630              0.4679413
      3.1639270              0.3623120
SP   3   1.00
      7.8682724             -0.1193324              0.0689991
      1.8812885             -0.1608542              0.3164240
      0.5442493              1.1434564              0.7443083
SP   1   1.00
      0.1687144              1.0000000              1.0000000
D    1   1.00
      1.2520000              1.0000000
D    1   1.00
      0.3130000              1.0000000
F    1   1.00
      0.8000000              1.0000000
****
}

set {
opt_type min
reference rhf
freeze_core true
e_convergence 10
d_convergence 10
ensure_bt_convergence true
dft_spherical_points 590
dft_radial_points 99
}

e = energy('b3lyp')

print_out('Grab this energy {0}'.format(e))
--------------------------------------------------------------------------

    Molecular point group: c1

    Geometry (in Bohr), charge = 0, multiplicity = 1:

       Center              X                  Y                   Z               Mass
    ------------   -----------------  -----------------  -----------------  -----------------
         C            0.003041315768    -0.003703720360    -0.000000339270    12.000000000000
         C           -0.000714896232     0.001531808440    -2.481780714370    12.000000000000
         H           -1.245980001832    -1.237875117660    -3.532034525170     1.007825032230
         H            1.240027829868     1.243982225640    -3.533533058470     1.007825032230
         C           -0.001143936232     0.000994902840     2.481780423830    12.000000000000
         H            1.240776959168    -1.235132204360     3.530014325230     1.007825032230
         H           -1.248904413332     1.243039541840     3.535560757430     1.007825032230

  Charge       = 0
  Multiplicity = 1
  Basis Set: ANONYMOUS7F89A7F5
    Blend: 6-31G_2DFP_
  Basis Set: (ANONYMOUS7F89A7F5 AUX)
    Blend: DEF2-UNIVERSAL-JKFIT

    Orbital Energies [Eh]
    ---------------------

    Doubly Occupied:

       1A    -10.201509     2A    -10.184656     3A    -10.184626
       4A     -0.784871     5A     -0.699880     6A     -0.519289
       7A     -0.446531     8A     -0.441008     9A     -0.440896
      10A     -0.263655    11A     -0.263307

  @DF-RKS Final Energy:  -116.66711055572549

   => Energetics <=

    Nuclear Repulsion Energy =             59.0064955503540176
    One-Electron Energy =                -272.1736964983037979
    Two-Electron Energy =                 110.8315606832954359
    DFT Exchange-Correlation Energy =     -14.3314702910711613
    Empirical Dispersion Energy =           0.0000000000000000
    VV10 Nonlocal Energy =                  0.0000000000000000
    Total Energy =                       -116.6671105557254862

  Dipole Moment: [D]
     X:    -0.0019      Y:     0.0023      Z:    -0.0000     Total:     0.0030

*** Psi4 exiting successfully. Buy a developer a beer!
