                               Psi4 1.4a2.dev629

  ==> Input File <==

--------------------------------------------------------------------------
import os
memory 14 GB

molecule {
 X   -1.4156478285   -1.4127792915   -0.0000000000
 C    0.0053551470    0.0019354231   -0.0000009597
 X    1.4124185676   -1.4160085524   -0.0000000000
 C   -0.0009713025   -0.0017094296   -2.4817789597
 H   -1.2415434585   -1.2425695364   -3.5335977648
 H    1.2408906406    1.2428625430   -3.5319705502
 C    0.0037224581   -0.0022472393    2.4817837185
 H    1.2409450370   -1.2398345347    3.5315788962
 H   -1.2451692609    1.2419234979    3.5339856196
units bohr
}

basis {

assign 6-31g_2dfp_

[ 6-31g_2dfp_ ]
spherical

!----------------------------------------------------------------------
! Basis Set Exchange
! Version v0.8.13
! https://www.basissetexchange.org
!----------------------------------------------------------------------
!   Basis set: 6-31G(2df,p)
! Description: 6-31G(2df,p)
!        Role: orbital
!     Version: 0  (Data from the original Basis Set Exchange)
!----------------------------------------------------------------------

****
H     0
S    3   1.00
     18.7311370              0.03349460
      2.8253937              0.23472695
      0.6401217              0.81375733
S    1   1.00
      0.1612778              1.00000000
P    1   1.00
      1.5000000              1.0000000
P    1   1.00
      0.3750000              1.0000000
****
C     0
S    6   1.00
   3047.5249000              0.0018347
    457.3695100              0.0140373
    103.9486900              0.0688426
     29.2101550              0.2321844
      9.2866630              0.4679413
      3.1639270              0.3623120
SP   3   1.00
      7.8682724             -0.1193324              0.0689991
      1.8812885             -0.1608542              0.3164240
      0.5442493              1.1434564              0.7443083
SP   1   1.00
      0.1687144              1.0000000              1.0000000
D    1   1.00
      1.2520000              1.0000000
D    1   1.00
      0.3130000              1.0000000
F    1   1.00
      0.8000000              1.0000000
****
}

set {
opt_type min
reference rhf
freeze_core true
e_convergence 10
d_convergence 10
ensure_bt_convergence true
dft_spherical_points 590
dft_radial_points 99
}

e = energy('b3lyp')

print_out('Grab this energy {0}'.format(e))
--------------------------------------------------------------------------

    Molecular point group: c1

    Geometry (in Bohr), charge = 0, multiplicity = 1:

       Center              X                  Y                   Z               Mass
    ------------   -----------------  -----------------  -----------------  -----------------
         C            0.003047941736     0.002481354427    -0.000002002890    12.000000000000
         C           -0.003278507764    -0.001163498273    -2.481780002890    12.000000000000
         H           -1.243850663764    -1.242023605073    -3.533598807990     1.007825032230
         H            1.238583435336     1.243408474327    -3.531971593390     1.007825032230
         C            0.001415252836    -0.001701307973     2.481782675310    12.000000000000
         H            1.238637831736    -1.239288603373     3.531577853010     1.007825032230
         H           -1.247476466164     1.242469429227     3.533984576410     1.007825032230

  Charge       = 0
  Multiplicity = 1
  Basis Set: ANONYMOUSC39F54B1
    Blend: 6-31G_2DFP_
  Basis Set: (ANONYMOUSC39F54B1 AUX)
    Blend: DEF2-UNIVERSAL-JKFIT

    Orbital Energies [Eh]
    ---------------------

    Doubly Occupied:

       1A    -10.201510     2A    -10.184657     3A    -10.184627
       4A     -0.784871     5A     -0.699880     6A     -0.519295
       7A     -0.446588     8A     -0.440945     9A     -0.440900
      10A     -0.263496    11A     -0.263466

  @DF-RKS Final Energy:  -116.66710645716331

   => Energetics <=

    Nuclear Repulsion Energy =             59.0065132270512294
    One-Electron Energy =                -272.1737097248681039
    Two-Electron Energy =                 110.8315617857033573
    DFT Exchange-Correlation Energy =     -14.3314717450498090
    Empirical Dispersion Energy =           0.0000000000000000
    VV10 Nonlocal Energy =                  0.0000000000000000
    Total Energy =                       -116.6671064571633138

  Dipole Moment: [D]
     X:    -0.0019      Y:    -0.0027      Z:    -0.0000     Total:     0.0033

*** Psi4 exiting successfully. Buy a developer a beer!
