                               Psi4 1.4a2.dev629

  ==> Input File <==

--------------------------------------------------------------------------
import os
memory 14 GB

molecule {
 X   -1.4154028297   -1.4130242903    0.0000000000
 C   -0.0000019384   -0.0030413479    0.0016349828
 X    1.4154083210   -1.4130187990    0.0000000000
 C   -0.0003848522   -0.0010904421   -2.4808739011
 H   -1.2361421796   -1.2394904938   -3.5331604507
 H    1.2367537768    1.2409121112   -3.5341422106
 C    0.0003844520   -0.0010926669    2.4827019874
 H    1.2434192976   -1.2467768453    3.5314351335
 H   -1.2440340475    1.2481956541    3.5324044587
units bohr
}

basis {

assign 6-31g_2dfp_

[ 6-31g_2dfp_ ]
spherical

!----------------------------------------------------------------------
! Basis Set Exchange
! Version v0.8.13
! https://www.basissetexchange.org
!----------------------------------------------------------------------
!   Basis set: 6-31G(2df,p)
! Description: 6-31G(2df,p)
!        Role: orbital
!     Version: 0  (Data from the original Basis Set Exchange)
!----------------------------------------------------------------------

****
H     0
S    3   1.00
     18.7311370              0.03349460
      2.8253937              0.23472695
      0.6401217              0.81375733
S    1   1.00
      0.1612778              1.00000000
P    1   1.00
      1.5000000              1.0000000
P    1   1.00
      0.3750000              1.0000000
****
C     0
S    6   1.00
   3047.5249000              0.0018347
    457.3695100              0.0140373
    103.9486900              0.0688426
     29.2101550              0.2321844
      9.2866630              0.4679413
      3.1639270              0.3623120
SP   3   1.00
      7.8682724             -0.1193324              0.0689991
      1.8812885             -0.1608542              0.3164240
      0.5442493              1.1434564              0.7443083
SP   1   1.00
      0.1687144              1.0000000              1.0000000
D    1   1.00
      1.2520000              1.0000000
D    1   1.00
      0.3130000              1.0000000
F    1   1.00
      0.8000000              1.0000000
****
}

set {
opt_type min
reference rhf
freeze_core true
e_convergence 10
d_convergence 10
ensure_bt_convergence true
dft_spherical_points 590
dft_radial_points 99
}

e = energy('b3lyp')

print_out('Grab this energy {0}'.format(e))
--------------------------------------------------------------------------

    Molecular point group: c1

    Geometry (in Bohr), charge = 0, multiplicity = 1:

       Center              X                  Y                   Z               Mass
    ------------   -----------------  -----------------  -----------------  -----------------
         C           -0.000001157996    -0.001546746676     0.000684060363    12.000000000000
         C           -0.000384071796     0.000404159124    -2.481824823537    12.000000000000
         H           -1.236141399196    -1.237995892576    -3.534111373137     1.007825032230
         H            1.236754557204     1.242406712424    -3.535093133037     1.007825032230
         C            0.000385232404     0.000401934324     2.481751064963    12.000000000000
         H            1.243420078004    -1.245282244076     3.530484211063     1.007825032230
         H           -1.244033267096     1.249690255324     3.531453536263     1.007825032230

  Charge       = 0
  Multiplicity = 1
  Basis Set: ANONYMOUS2C637BAB
    Blend: 6-31G_2DFP_
  Basis Set: (ANONYMOUS2C637BAB AUX)
    Blend: DEF2-UNIVERSAL-JKFIT

    Orbital Energies [Eh]
    ---------------------

    Doubly Occupied:

       1A    -10.201510     2A    -10.184968     3A    -10.184314
       4A     -0.784870     5A     -0.699881     6A     -0.519293
       7A     -0.446529     8A     -0.441006     9A     -0.440898
      10A     -0.263684    11A     -0.263278

  @DF-RKS Final Energy:  -116.66710787791737

   => Energetics <=

    Nuclear Repulsion Energy =             59.0064799659304811
    One-Electron Energy =                -272.1736546089399553
    Two-Electron Energy =                 110.8315370989947439
    DFT Exchange-Correlation Energy =     -14.3314703339026472
    Empirical Dispersion Energy =           0.0000000000000000
    VV10 Nonlocal Energy =                  0.0000000000000000
    Total Energy =                       -116.6671078779173740

  Dipole Moment: [D]
     X:    -0.0000      Y:     0.0009      Z:    -0.0016     Total:     0.0018

*** Psi4 exiting successfully. Buy a developer a beer!
