                               Psi4 1.4a2.dev629

  ==> Input File <==

--------------------------------------------------------------------------
import os
memory 14 GB

molecule {
 X   -1.4130153674   -1.4154117526    0.0000000000
 C   -0.0000015889    0.0030459086    0.0060729366
 X    1.4130194065   -1.4154077135   -0.0000000000
 C    0.0003846233    0.0010908977   -2.4800378587
 H   -1.2448837855   -1.2415295216   -3.5356826527
 H    1.2442685077    1.2401095306   -3.5346969977
 C   -0.0003879078    0.0010918714    2.4835380219
 H    1.2434113626   -1.2400594555    3.5308899384
 H   -1.2427952504    1.2386431148    3.5299166122
units bohr
}

basis {

assign 6-31g_2dfp_

[ 6-31g_2dfp_ ]
spherical

!----------------------------------------------------------------------
! Basis Set Exchange
! Version v0.8.13
! https://www.basissetexchange.org
!----------------------------------------------------------------------
!   Basis set: 6-31G(2df,p)
! Description: 6-31G(2df,p)
!        Role: orbital
!     Version: 0  (Data from the original Basis Set Exchange)
!----------------------------------------------------------------------

****
H     0
S    3   1.00
     18.7311370              0.03349460
      2.8253937              0.23472695
      0.6401217              0.81375733
S    1   1.00
      0.1612778              1.00000000
P    1   1.00
      1.5000000              1.0000000
P    1   1.00
      0.3750000              1.0000000
****
C     0
S    6   1.00
   3047.5249000              0.0018347
    457.3695100              0.0140373
    103.9486900              0.0688426
     29.2101550              0.2321844
      9.2866630              0.4679413
      3.1639270              0.3623120
SP   3   1.00
      7.8682724             -0.1193324              0.0689991
      1.8812885             -0.1608542              0.3164240
      0.5442493              1.1434564              0.7443083
SP   1   1.00
      0.1687144              1.0000000              1.0000000
D    1   1.00
      1.2520000              1.0000000
D    1   1.00
      0.3130000              1.0000000
F    1   1.00
      0.8000000              1.0000000
****
}

set {
opt_type min
reference rhf
freeze_core true
e_convergence 10
d_convergence 10
ensure_bt_convergence true
dft_spherical_points 590
dft_radial_points 99
}

e = energy('b3lyp')

print_out('Grab this energy {0}'.format(e))
--------------------------------------------------------------------------

    Molecular point group: c1

    Geometry (in Bohr), charge = 0, multiplicity = 1:

       Center              X                  Y                   Z               Mass
    ------------   -----------------  -----------------  -----------------  -----------------
         C           -0.000000149030     0.001549939043     0.003444263845    12.000000000000
         C            0.000386063170    -0.000405071857    -2.482666531455    12.000000000000
         H           -1.244882345630    -1.243025491157    -3.538311325455     1.007825032230
         H            1.244269947570     1.238613561043    -3.537325670455     1.007825032230
         C           -0.000386467930    -0.000404098157     2.480909349145    12.000000000000
         H            1.243412802470    -1.241555425057     3.528261265645     1.007825032230
         H           -1.242793810530     1.237147145243     3.527287939445     1.007825032230

  Charge       = 0
  Multiplicity = 1
  Basis Set: ANONYMOUSFFF97EA7
    Blend: 6-31G_2DFP_
  Basis Set: (ANONYMOUSFFF97EA7 AUX)
    Blend: DEF2-UNIVERSAL-JKFIT

    Orbital Energies [Eh]
    ---------------------

    Doubly Occupied:

       1A    -10.201510     2A    -10.185103     3A    -10.184179
       4A     -0.784881     5A     -0.699870     6A     -0.519288
       7A     -0.446531     8A     -0.441800     9A     -0.440108
      10A     -0.264043    11A     -0.262921

  @DF-RKS Final Energy:  -116.66709907443996

   => Energetics <=

    Nuclear Repulsion Energy =             59.0065676094117464
    One-Electron Energy =                -272.1738014448298486
    Two-Electron Energy =                 110.8316097191122651
    DFT Exchange-Correlation Energy =     -14.3314749581341179
    Empirical Dispersion Energy =           0.0000000000000000
    VV10 Nonlocal Energy =                  0.0000000000000000
    Total Energy =                       -116.6670990744399603

  Dipole Moment: [D]
     X:     0.0000      Y:    -0.0009      Z:     0.0074     Total:     0.0075

*** Psi4 exiting successfully. Buy a developer a beer!
