                               Psi4 1.4a2.dev629

  ==> Input File <==

--------------------------------------------------------------------------
import os
memory 14 GB

molecule {
 X   -1.4108122111   -1.4176149089    0.0000000000
 C    0.0093294715   -0.0019567372   -0.0000082124
 X    1.4180291081   -1.4103980119   -0.0000000000
 C    0.0031091554    0.0048155351   -2.4817799171
 H   -1.2492531482   -1.2387527488   -3.5246704901
 H    1.2384331177    1.2413721099   -3.5408288186
 C   -0.0015870573   -0.0008776172    2.4817562838
 H    1.2361085483   -1.2466772320    3.5412323141
 H   -1.2433569843    1.2416624910    3.5242988402
units bohr
}

basis {

assign 6-31g_2dfp_

[ 6-31g_2dfp_ ]
spherical

!----------------------------------------------------------------------
! Basis Set Exchange
! Version v0.8.13
! https://www.basissetexchange.org
!----------------------------------------------------------------------
!   Basis set: 6-31G(2df,p)
! Description: 6-31G(2df,p)
!        Role: orbital
!     Version: 0  (Data from the original Basis Set Exchange)
!----------------------------------------------------------------------

****
H     0
S    3   1.00
     18.7311370              0.03349460
      2.8253937              0.23472695
      0.6401217              0.81375733
S    1   1.00
      0.1612778              1.00000000
P    1   1.00
      1.5000000              1.0000000
P    1   1.00
      0.3750000              1.0000000
****
C     0
S    6   1.00
   3047.5249000              0.0018347
    457.3695100              0.0140373
    103.9486900              0.0688426
     29.2101550              0.2321844
      9.2866630              0.4679413
      3.1639270              0.3623120
SP   3   1.00
      7.8682724             -0.1193324              0.0689991
      1.8812885             -0.1608542              0.3164240
      0.5442493              1.1434564              0.7443083
SP   1   1.00
      0.1687144              1.0000000              1.0000000
D    1   1.00
      1.2520000              1.0000000
D    1   1.00
      0.3130000              1.0000000
F    1   1.00
      0.8000000              1.0000000
****
}

set {
opt_type min
reference rhf
freeze_core true
e_convergence 10
d_convergence 10
ensure_bt_convergence true
dft_spherical_points 590
dft_radial_points 99
}

e = energy('b3lyp')

print_out('Grab this energy {0}'.format(e))
--------------------------------------------------------------------------

    Molecular point group: c1

    Geometry (in Bohr), charge = 0, multiplicity = 1:

       Center              X                  Y                   Z               Mass
    ------------   -----------------  -----------------  -----------------  -----------------
         C            0.006531436412    -0.002490320784     0.000000532098    12.000000000000
         C            0.000311120312     0.004281951516    -2.481771172602    12.000000000000
         H           -1.252051183288    -1.239286332384    -3.524661745602     1.007825032230
         H            1.235635082612     1.240838526316    -3.540820074102     1.007825032230
         C           -0.004385092388    -0.001411200784     2.481765028298    12.000000000000
         H            1.233310513212    -1.247210815584     3.541241058598     1.007825032230
         H           -1.246155019388     1.241128907416     3.524307584698     1.007825032230

  Charge       = 0
  Multiplicity = 1
  Basis Set: ANONYMOUS391B14A8
    Blend: 6-31G_2DFP_
  Basis Set: (ANONYMOUS391B14A8 AUX)
    Blend: DEF2-UNIVERSAL-JKFIT

    Orbital Energies [Eh]
    ---------------------

    Doubly Occupied:

       1A    -10.201510     2A    -10.184657     3A    -10.184627
       4A     -0.784871     5A     -0.699878     6A     -0.519293
       7A     -0.446586     8A     -0.440953     9A     -0.440894
      10A     -0.263493    11A     -0.263468

  @DF-RKS Final Energy:  -116.66710819072782

   => Energetics <=

    Nuclear Repulsion Energy =             59.0065729443009346
    One-Electron Energy =                -272.1738411814005758
    Two-Electron Energy =                 110.8316306224467525
    DFT Exchange-Correlation Energy =     -14.3314705760749206
    Empirical Dispersion Energy =           0.0000000000000000
    VV10 Nonlocal Energy =                  0.0000000000000000
    Total Energy =                       -116.6671081907278165

  Dipole Moment: [D]
     X:    -0.0051      Y:     0.0027      Z:    -0.0001     Total:     0.0057

*** Psi4 exiting successfully. Buy a developer a beer!
