                               Psi4 1.4a2.dev629

  ==> Input File <==

--------------------------------------------------------------------------
import os
memory 14 GB

molecule {
 X   -1.4175886650   -1.4108384550   -0.0000000000
 C   -0.0026303352    0.0000046722    0.0000000002
 X    1.4108327371   -1.4175943829   -0.0000000000
 C    0.0010775464    0.0011014670   -2.4809663241
 H   -1.2345398876   -1.2392791222   -3.5290294511
 H    1.2381579590    1.2411150648   -3.5364594433
 C    0.0010767679   -0.0010983104    2.4809663231
 H    1.2420023242   -1.2372696839    3.5364527011
 H   -1.2383884467    1.2354316303    3.5290361942
units bohr
}

basis {

assign 6-31g_2dfp_

[ 6-31g_2dfp_ ]
spherical

!----------------------------------------------------------------------
! Basis Set Exchange
! Version v0.8.13
! https://www.basissetexchange.org
!----------------------------------------------------------------------
!   Basis set: 6-31G(2df,p)
! Description: 6-31G(2df,p)
!        Role: orbital
!     Version: 0  (Data from the original Basis Set Exchange)
!----------------------------------------------------------------------

****
H     0
S    3   1.00
     18.7311370              0.03349460
      2.8253937              0.23472695
      0.6401217              0.81375733
S    1   1.00
      0.1612778              1.00000000
P    1   1.00
      1.5000000              1.0000000
P    1   1.00
      0.3750000              1.0000000
****
C     0
S    6   1.00
   3047.5249000              0.0018347
    457.3695100              0.0140373
    103.9486900              0.0688426
     29.2101550              0.2321844
      9.2866630              0.4679413
      3.1639270              0.3623120
SP   3   1.00
      7.8682724             -0.1193324              0.0689991
      1.8812885             -0.1608542              0.3164240
      0.5442493              1.1434564              0.7443083
SP   1   1.00
      0.1687144              1.0000000              1.0000000
D    1   1.00
      1.2520000              1.0000000
D    1   1.00
      0.3130000              1.0000000
F    1   1.00
      0.8000000              1.0000000
****
}

set {
opt_type min
reference rhf
freeze_core true
e_convergence 10
d_convergence 10
ensure_bt_convergence true
dft_spherical_points 590
dft_radial_points 99
}

e = energy('b3lyp')

print_out('Grab this energy {0}'.format(e))
--------------------------------------------------------------------------

    Molecular point group: c1

    Geometry (in Bohr), charge = 0, multiplicity = 1:

       Center              X                  Y                   Z               Mass
    ------------   -----------------  -----------------  -----------------  -----------------
         C           -0.002669711596     0.000002378543     0.000000000417    12.000000000000
         C            0.001038170004     0.001099173343    -2.480966323883    12.000000000000
         H           -1.234579263996    -1.239281415857    -3.529029450883     1.007825032230
         H            1.238118582604     1.241112771143    -3.536459443083     1.007825032230
         C            0.001037391504    -0.001100604057     2.480966323317    12.000000000000
         H            1.241962947804    -1.237271977557     3.536452701317     1.007825032230
         H           -1.238427823096     1.235429336643     3.529036194417     1.007825032230

  Charge       = 0
  Multiplicity = 1
  Basis Set: ANONYMOUSFF3D3324
    Blend: 6-31G_2DFP_
  Basis Set: (ANONYMOUSFF3D3324 AUX)
    Blend: DEF2-UNIVERSAL-JKFIT

    Orbital Energies [Eh]
    ---------------------

    Doubly Occupied:

       1A    -10.201433     2A    -10.184169     3A    -10.184138
       4A     -0.785074     5A     -0.700243     6A     -0.520005
       7A     -0.447106     8A     -0.441164     9A     -0.441163
      10A     -0.263547    11A     -0.263545

  @DF-RKS Final Energy:  -116.66711464591646

   => Energetics <=

    Nuclear Repulsion Energy =             59.0487787962400361
    One-Electron Energy =                -272.2534807900517535
    Two-Electron Energy =                 110.8720228724608319
    DFT Exchange-Correlation Energy =     -14.3344355245655795
    Empirical Dispersion Energy =           0.0000000000000000
    VV10 Nonlocal Energy =                  0.0000000000000000
    Total Energy =                       -116.6671146459164561

  Dipole Moment: [D]
     X:     0.0015      Y:    -0.0000      Z:    -0.0000     Total:     0.0015

*** Psi4 exiting successfully. Buy a developer a beer!
