                               Psi4 1.4a2.dev629

  ==> Input File <==

--------------------------------------------------------------------------
import os
memory 14 GB

molecule {
 X   -1.4175954106   -1.4108317094   -0.0000000000
 C   -0.0026341379    0.0000050180   -0.0027798915
 X    1.4108292650   -1.4175978550   -0.0000000000
 C    0.0010772892    0.0011030050   -2.4790164465
 H   -1.2383216877   -1.2430700588   -3.5297693098
 H    1.2419447726    1.2449049907   -3.5372001750
 C    0.0010772423   -0.0010959984    2.4845549960
 H    1.2455973092   -1.2408579928    3.5358202051
 H   -1.2419746420    1.2390134807    3.5283906216
units bohr
}

basis {

assign 6-31g_2dfp_

[ 6-31g_2dfp_ ]
spherical

!----------------------------------------------------------------------
! Basis Set Exchange
! Version v0.8.13
! https://www.basissetexchange.org
!----------------------------------------------------------------------
!   Basis set: 6-31G(2df,p)
! Description: 6-31G(2df,p)
!        Role: orbital
!     Version: 0  (Data from the original Basis Set Exchange)
!----------------------------------------------------------------------

****
H     0
S    3   1.00
     18.7311370              0.03349460
      2.8253937              0.23472695
      0.6401217              0.81375733
S    1   1.00
      0.1612778              1.00000000
P    1   1.00
      1.5000000              1.0000000
P    1   1.00
      0.3750000              1.0000000
****
C     0
S    6   1.00
   3047.5249000              0.0018347
    457.3695100              0.0140373
    103.9486900              0.0688426
     29.2101550              0.2321844
      9.2866630              0.4679413
      3.1639270              0.3623120
SP   3   1.00
      7.8682724             -0.1193324              0.0689991
      1.8812885             -0.1608542              0.3164240
      0.5442493              1.1434564              0.7443083
SP   1   1.00
      0.1687144              1.0000000              1.0000000
D    1   1.00
      1.2520000              1.0000000
D    1   1.00
      0.3130000              1.0000000
F    1   1.00
      0.8000000              1.0000000
****
}

set {
opt_type min
reference rhf
freeze_core true
e_convergence 10
d_convergence 10
ensure_bt_convergence true
dft_spherical_points 590
dft_radial_points 99
}

e = energy('b3lyp')

print_out('Grab this energy {0}'.format(e))
--------------------------------------------------------------------------

    Molecular point group: c1

    Geometry (in Bohr), charge = 0, multiplicity = 1:

       Center              X                  Y                   Z               Mass
    ------------   -----------------  -----------------  -----------------  -----------------
         C           -0.002672786996     0.000001654631    -0.003537390038    12.000000000000
         C            0.001038640104     0.001099641631    -2.479773945038    12.000000000000
         H           -1.238360336796    -1.243073422169    -3.530526808338     1.007825032230
         H            1.241906123504     1.244901627331    -3.537957673538     1.007825032230
         C            0.001038593204    -0.001099361769     2.483797497462    12.000000000000
         H            1.245558660104    -1.240861356169     3.535062706562     1.007825032230
         H           -1.242013291096     1.239010117331     3.527633123062     1.007825032230

  Charge       = 0
  Multiplicity = 1
  Basis Set: ANONYMOUS9F633A5C
    Blend: 6-31G_2DFP_
  Basis Set: (ANONYMOUS9F633A5C AUX)
    Blend: DEF2-UNIVERSAL-JKFIT

    Orbital Energies [Eh]
    ---------------------

    Doubly Occupied:

       1A    -10.201507     2A    -10.184760     3A    -10.184521
       4A     -0.784878     5A     -0.699875     6A     -0.519287
       7A     -0.446527     8A     -0.441072     9A     -0.440836
      10A     -0.264160    11A     -0.262804

  @DF-RKS Final Energy:  -116.66709510806922

   => Energetics <=

    Nuclear Repulsion Energy =             59.0066142563192813
    One-Electron Energy =                -272.1738992666968784
    Two-Electron Energy =                 110.8316685045758589
    DFT Exchange-Correlation Energy =     -14.3314786022674667
    Empirical Dispersion Energy =           0.0000000000000000
    VV10 Nonlocal Energy =                  0.0000000000000000
    Total Energy =                       -116.6670951080692191

  Dipole Moment: [D]
     X:     0.0015      Y:    -0.0000      Z:    -0.0085     Total:     0.0086

*** Psi4 exiting successfully. Buy a developer a beer!
