                               Psi4 1.4a2.dev629

  ==> Input File <==

--------------------------------------------------------------------------
import os
memory 14 GB

molecule {
 X   -1.4142274148   -1.4141997052    0.0000000000
 C   -0.0019216583   -0.0019433078   -0.0000101756
 X    1.4145734014   -1.4138537186    0.0000000000
 C    0.0043387700    0.0043316441   -2.4817830865
 H   -1.2433986634   -1.2435313412   -3.5331768666
 H    1.2404054186    1.2405430559   -3.5323749813
 C   -0.0003511785   -0.0003777232    2.4817775737
 H    1.2419929100   -1.2419293882    3.5327808883
 H   -1.2414115851    1.2425333640    3.5327866480
units bohr
}

basis {

assign 6-31g_2dfp_

[ 6-31g_2dfp_ ]
spherical

!----------------------------------------------------------------------
! Basis Set Exchange
! Version v0.8.13
! https://www.basissetexchange.org
!----------------------------------------------------------------------
!   Basis set: 6-31G(2df,p)
! Description: 6-31G(2df,p)
!        Role: orbital
!     Version: 0  (Data from the original Basis Set Exchange)
!----------------------------------------------------------------------

****
H     0
S    3   1.00
     18.7311370              0.03349460
      2.8253937              0.23472695
      0.6401217              0.81375733
S    1   1.00
      0.1612778              1.00000000
P    1   1.00
      1.5000000              1.0000000
P    1   1.00
      0.3750000              1.0000000
****
C     0
S    6   1.00
   3047.5249000              0.0018347
    457.3695100              0.0140373
    103.9486900              0.0688426
     29.2101550              0.2321844
      9.2866630              0.4679413
      3.1639270              0.3623120
SP   3   1.00
      7.8682724             -0.1193324              0.0689991
      1.8812885             -0.1608542              0.3164240
      0.5442493              1.1434564              0.7443083
SP   1   1.00
      0.1687144              1.0000000              1.0000000
D    1   1.00
      1.2520000              1.0000000
D    1   1.00
      0.3130000              1.0000000
F    1   1.00
      0.8000000              1.0000000
****
}

set {
opt_type min
reference rhf
freeze_core true
e_convergence 10
d_convergence 10
ensure_bt_convergence true
dft_spherical_points 590
dft_radial_points 99
}

e = energy('b3lyp')

print_out('Grab this energy {0}'.format(e))
--------------------------------------------------------------------------

    Molecular point group: c1

    Geometry (in Bohr), charge = 0, multiplicity = 1:

       Center              X                  Y                   Z               Mass
    ------------   -----------------  -----------------  -----------------  -----------------
         C           -0.002480231344    -0.002485992907    -0.000005867730    12.000000000000
         C            0.003780196956     0.003788958993    -2.481778778630    12.000000000000
         H           -1.243957236444    -1.244074026307    -3.533172558730     1.007825032230
         H            1.239846845556     1.240000370793    -3.532370673430     1.007825032230
         C           -0.000909751544    -0.000920408307     2.481781881570    12.000000000000
         H            1.241434336956    -1.242472073307     3.532785196170     1.007825032230
         H           -1.241970158144     1.241990678893     3.532790955870     1.007825032230

  Charge       = 0
  Multiplicity = 1
  Basis Set: ANONYMOUS2159422E
    Blend: 6-31G_2DFP_
  Basis Set: (ANONYMOUS2159422E AUX)
    Blend: DEF2-UNIVERSAL-JKFIT

    Orbital Energies [Eh]
    ---------------------

    Doubly Occupied:

       1A    -10.201511     2A    -10.184657     3A    -10.184627
       4A     -0.784871     5A     -0.699880     6A     -0.519300
       7A     -0.446642     8A     -0.440954     9A     -0.440836
      10A     -0.263496    11A     -0.263466

  @DF-RKS Final Energy:  -116.66710092661216

   => Energetics <=

    Nuclear Repulsion Energy =             59.0065412875456232
    One-Electron Energy =                -272.1737436653154987
    Two-Electron Energy =                 110.8315747048231827
    DFT Exchange-Correlation Energy =     -14.3314732536654592
    Empirical Dispersion Energy =           0.0000000000000000
    VV10 Nonlocal Energy =                  0.0000000000000000
    Total Energy =                       -116.6671009266121644

  Dipole Moment: [D]
     X:     0.0027      Y:     0.0027      Z:     0.0001     Total:     0.0038

*** Psi4 exiting successfully. Buy a developer a beer!
