                               Psi4 1.4a2.dev629

  ==> Input File <==

--------------------------------------------------------------------------
import os
memory 14 GB

molecule {
 X   -1.4227880882   -1.4056390318    0.0000000000
 C    0.0053763646    0.0082834777    0.0000009295
 X    1.4195399681   -1.4088871519   -0.0000000000
 C    0.0039803478   -0.0000314704   -2.4817734887
 H   -1.2410664312   -1.2481751635   -3.5262181894
 H    1.2420972126    1.2364949106   -3.5393021408
 C   -0.0012258885   -0.0005800259    2.4817650598
 H    1.2404676533   -1.2454253458    3.5242276089
 H   -1.2463811385    1.2355326810    3.5413002205
units bohr
}

basis {

assign 6-31g_2dfp_

[ 6-31g_2dfp_ ]
spherical

!----------------------------------------------------------------------
! Basis Set Exchange
! Version v0.8.13
! https://www.basissetexchange.org
!----------------------------------------------------------------------
!   Basis set: 6-31G(2df,p)
! Description: 6-31G(2df,p)
!        Role: orbital
!     Version: 0  (Data from the original Basis Set Exchange)
!----------------------------------------------------------------------

****
H     0
S    3   1.00
     18.7311370              0.03349460
      2.8253937              0.23472695
      0.6401217              0.81375733
S    1   1.00
      0.1612778              1.00000000
P    1   1.00
      1.5000000              1.0000000
P    1   1.00
      0.3750000              1.0000000
****
C     0
S    6   1.00
   3047.5249000              0.0018347
    457.3695100              0.0140373
    103.9486900              0.0688426
     29.2101550              0.2321844
      9.2866630              0.4679413
      3.1639270              0.3623120
SP   3   1.00
      7.8682724             -0.1193324              0.0689991
      1.8812885             -0.1608542              0.3164240
      0.5442493              1.1434564              0.7443083
SP   1   1.00
      0.1687144              1.0000000              1.0000000
D    1   1.00
      1.2520000              1.0000000
D    1   1.00
      0.3130000              1.0000000
F    1   1.00
      0.8000000              1.0000000
****
}

set {
opt_type min
reference rhf
freeze_core true
e_convergence 10
d_convergence 10
ensure_bt_convergence true
dft_spherical_points 590
dft_radial_points 99
}

e = energy('b3lyp')

print_out('Grab this energy {0}'.format(e))
--------------------------------------------------------------------------

    Molecular point group: c1

    Geometry (in Bohr), charge = 0, multiplicity = 1:

       Center              X                  Y                   Z               Mass
    ------------   -----------------  -----------------  -----------------  -----------------
         C            0.003061951244     0.006526801047     0.000002988762    12.000000000000
         C            0.001665934444    -0.001788147053    -2.481771429438    12.000000000000
         H           -1.243380844556    -1.249931840153    -3.526216130138     1.007825032230
         H            1.239782799244     1.234738233947    -3.539300081538     1.007825032230
         C           -0.003540301856    -0.002336702553     2.481767119062    12.000000000000
         H            1.238153239944    -1.247182022453     3.524229668162     1.007825032230
         H           -1.248695551856     1.233776004347     3.541302279762     1.007825032230

  Charge       = 0
  Multiplicity = 1
  Basis Set: ANONYMOUSAE8981D3
    Blend: 6-31G_2DFP_
  Basis Set: (ANONYMOUSAE8981D3 AUX)
    Blend: DEF2-UNIVERSAL-JKFIT

    Orbital Energies [Eh]
    ---------------------

    Doubly Occupied:

       1A    -10.201509     2A    -10.184656     3A    -10.184626
       4A     -0.784871     5A     -0.699878     6A     -0.519288
       7A     -0.446531     8A     -0.440967     9A     -0.440936
      10A     -0.263528    11A     -0.263434

  @DF-RKS Final Energy:  -116.66711412527236

   => Energetics <=

    Nuclear Repulsion Energy =             59.0065396440852155
    One-Electron Energy =                -272.1737977582882877
    Two-Electron Energy =                 110.8316131080416511
    DFT Exchange-Correlation Energy =     -14.3314691191109507
    Empirical Dispersion Energy =           0.0000000000000000
    VV10 Nonlocal Energy =                  0.0000000000000000
    Total Energy =                       -116.6671141252723629

  Dipole Moment: [D]
     X:    -0.0019      Y:    -0.0050      Z:     0.0000     Total:     0.0054

*** Psi4 exiting successfully. Buy a developer a beer!
