                               Psi4 1.4a2.dev629

  ==> Input File <==

--------------------------------------------------------------------------
import os
memory 14 GB

molecule {
 X   -1.4106456776   -1.4177814424    0.0000000000
 C    0.0026251387    0.0019501801   -0.0000067140
 X    1.4174080548   -1.4110190652    0.0000000000
 C   -0.0034254110   -0.0030727785   -2.4817829952
 H   -1.2449668378   -1.2401988078   -3.5363004030
 H    1.2431439745    1.2395411316   -3.5292669784
 C    0.0012640311   -0.0008785281    2.4817800407
 H    1.2375052876   -1.2422056347    3.5288649384
 H   -1.2429085603    1.2452378249    3.5367121114
units bohr
}

basis {

assign 6-31g_2dfp_

[ 6-31g_2dfp_ ]
spherical

!----------------------------------------------------------------------
! Basis Set Exchange
! Version v0.8.13
! https://www.basissetexchange.org
!----------------------------------------------------------------------
!   Basis set: 6-31G(2df,p)
! Description: 6-31G(2df,p)
!        Role: orbital
!     Version: 0  (Data from the original Basis Set Exchange)
!----------------------------------------------------------------------

****
H     0
S    3   1.00
     18.7311370              0.03349460
      2.8253937              0.23472695
      0.6401217              0.81375733
S    1   1.00
      0.1612778              1.00000000
P    1   1.00
      1.5000000              1.0000000
P    1   1.00
      0.3750000              1.0000000
****
C     0
S    6   1.00
   3047.5249000              0.0018347
    457.3695100              0.0140373
    103.9486900              0.0688426
     29.2101550              0.2321844
      9.2866630              0.4679413
      3.1639270              0.3623120
SP   3   1.00
      7.8682724             -0.1193324              0.0689991
      1.8812885             -0.1608542              0.3164240
      0.5442493              1.1434564              0.7443083
SP   1   1.00
      0.1687144              1.0000000              1.0000000
D    1   1.00
      1.2520000              1.0000000
D    1   1.00
      0.3130000              1.0000000
F    1   1.00
      0.8000000              1.0000000
****
}

set {
opt_type min
reference rhf
freeze_core true
e_convergence 10
d_convergence 10
ensure_bt_convergence true
dft_spherical_points 590
dft_radial_points 99
}

e = energy('b3lyp')

print_out('Grab this energy {0}'.format(e))
--------------------------------------------------------------------------

    Molecular point group: c1

    Geometry (in Bohr), charge = 0, multiplicity = 1:

       Center              X                  Y                   Z               Mass
    ------------   -----------------  -----------------  -----------------  -----------------
         C            0.002668044505     0.002490268063    -0.000004059129    12.000000000000
         C           -0.003382505195    -0.002532690537    -2.481780340329    12.000000000000
         H           -1.244923931995    -1.239658719837    -3.536297748129     1.007825032230
         H            1.243186880305     1.240081219563    -3.529264323529     1.007825032230
         C            0.001306936905    -0.000338440137     2.481782695571    12.000000000000
         H            1.237548193405    -1.241665546737     3.528867593271     1.007825032230
         H           -1.242865654495     1.245777912863     3.536714766271     1.007825032230

  Charge       = 0
  Multiplicity = 1
  Basis Set: ANONYMOUS7357100C
    Blend: 6-31G_2DFP_
  Basis Set: (ANONYMOUS7357100C AUX)
    Blend: DEF2-UNIVERSAL-JKFIT

    Orbital Energies [Eh]
    ---------------------

    Doubly Occupied:

       1A    -10.201510     2A    -10.184656     3A    -10.184627
       4A     -0.784871     5A     -0.699880     6A     -0.519293
       7A     -0.446587     8A     -0.440944     9A     -0.440903
      10A     -0.263496    11A     -0.263466

  @DF-RKS Final Energy:  -116.66710543977786

   => Energetics <=

    Nuclear Repulsion Energy =             59.0065183240519673
    One-Electron Energy =                -272.1737207146982769
    Two-Electron Energy =                 110.8315682728268996
    DFT Exchange-Correlation Energy =     -14.3314713219584515
    Empirical Dispersion Energy =           0.0000000000000000
    VV10 Nonlocal Energy =                  0.0000000000000000
    Total Energy =                       -116.6671054397778562

  Dipole Moment: [D]
     X:    -0.0015      Y:    -0.0027      Z:    -0.0000     Total:     0.0031

*** Psi4 exiting successfully. Buy a developer a beer!
