                               Psi4 1.4a2.dev629

  ==> Input File <==

--------------------------------------------------------------------------
import os
memory 14 GB

molecule {
 X   -1.4140292274   -1.4143978926   -0.0000000000
 C   -0.0000001712    0.0019454896    0.0027798765
 X    1.4140301738   -1.4143969462   -0.0000000000
 C   -0.0023461099   -0.0019809104   -2.4845538183
 H   -1.2411399729   -1.2411044570   -3.5319081618
 H    1.2429286846    1.2422890383   -3.5322902263
 C    0.0023441196   -0.0019735230    2.4790152455
 H    1.2413395691   -1.2413007733    3.5332694620
 H   -1.2431270657    1.2424928545    3.5336876223
units bohr
}

basis {

assign 6-31g_2dfp_

[ 6-31g_2dfp_ ]
spherical

!----------------------------------------------------------------------
! Basis Set Exchange
! Version v0.8.13
! https://www.basissetexchange.org
!----------------------------------------------------------------------
!   Basis set: 6-31G(2df,p)
! Description: 6-31G(2df,p)
!        Role: orbital
!     Version: 0  (Data from the original Basis Set Exchange)
!----------------------------------------------------------------------

****
H     0
S    3   1.00
     18.7311370              0.03349460
      2.8253937              0.23472695
      0.6401217              0.81375733
S    1   1.00
      0.1612778              1.00000000
P    1   1.00
      1.5000000              1.0000000
P    1   1.00
      0.3750000              1.0000000
****
C     0
S    6   1.00
   3047.5249000              0.0018347
    457.3695100              0.0140373
    103.9486900              0.0688426
     29.2101550              0.2321844
      9.2866630              0.4679413
      3.1639270              0.3623120
SP   3   1.00
      7.8682724             -0.1193324              0.0689991
      1.8812885             -0.1608542              0.3164240
      0.5442493              1.1434564              0.7443083
SP   1   1.00
      0.1687144              1.0000000              1.0000000
D    1   1.00
      1.2520000              1.0000000
D    1   1.00
      0.3130000              1.0000000
F    1   1.00
      0.8000000              1.0000000
****
}

set {
opt_type min
reference rhf
freeze_core true
e_convergence 10
d_convergence 10
ensure_bt_convergence true
dft_spherical_points 590
dft_radial_points 99
}

e = energy('b3lyp')

print_out('Grab this energy {0}'.format(e))
--------------------------------------------------------------------------

    Molecular point group: c1

    Geometry (in Bohr), charge = 0, multiplicity = 1:

       Center              X                  Y                   Z               Mass
    ------------   -----------------  -----------------  -----------------  -----------------
         C            0.000000446152     0.002487866829     0.003537385560    12.000000000000
         C           -0.002345492548    -0.001438533171    -2.483796309240    12.000000000000
         H           -1.241139355548    -1.240562079771    -3.531150652740     1.007825032230
         H            1.242929301952     1.242831415529    -3.531532717240     1.007825032230
         C            0.002344736952    -0.001431145771     2.479772754560    12.000000000000
         H            1.241340186452    -1.240758396071     3.534026971060     1.007825032230
         H           -1.243126448348     1.243035231729     3.534445131360     1.007825032230

  Charge       = 0
  Multiplicity = 1
  Basis Set: ANONYMOUS744E6692
    Blend: 6-31G_2DFP_
  Basis Set: (ANONYMOUS744E6692 AUX)
    Blend: DEF2-UNIVERSAL-JKFIT

    Orbital Energies [Eh]
    ---------------------

    Doubly Occupied:

       1A    -10.201508     2A    -10.184760     3A    -10.184521
       4A     -0.784877     5A     -0.699875     6A     -0.519294
       7A     -0.446583     8A     -0.441044     9A     -0.440807
      10A     -0.264160    11A     -0.262804

  @DF-RKS Final Energy:  -116.66709072388774

   => Energetics <=

    Nuclear Repulsion Energy =             59.0066366765942476
    One-Electron Energy =                -272.1739215267276109
    Two-Electron Energy =                 110.8316746165571232
    DFT Exchange-Correlation Energy =     -14.3314804903114918
    Empirical Dispersion Energy =           0.0000000000000000
    VV10 Nonlocal Energy =                  0.0000000000000000
    Total Energy =                       -116.6670907238877390

  Dipole Moment: [D]
     X:     0.0000      Y:    -0.0027      Z:     0.0085     Total:     0.0089

*** Psi4 exiting successfully. Buy a developer a beer!
