                               Psi4 1.4a2.dev629

  ==> Input File <==

--------------------------------------------------------------------------
import os
memory 14 GB

molecule {
 X   -1.4146753692   -1.4137517508    0.0000000000
 C   -0.0007354188   -0.0056653088    0.0000001963
 X    1.4147057084   -1.4137214116    0.0000000000
 C    0.0014531768   -0.0019523578   -2.4817848013
 H   -1.2438259033   -1.2380294877   -3.5310162019
 H    1.2440314289    1.2419702170   -3.5345578978
 C    0.0010207429    0.0005388150    2.4817805603
 H    1.2429241799   -1.2389250134    3.5310274913
 H   -1.2448985454    1.2411091781    3.5345506530
units bohr
}

basis {

assign 6-31g_2dfp_

[ 6-31g_2dfp_ ]
spherical

!----------------------------------------------------------------------
! Basis Set Exchange
! Version v0.8.13
! https://www.basissetexchange.org
!----------------------------------------------------------------------
!   Basis set: 6-31G(2df,p)
! Description: 6-31G(2df,p)
!        Role: orbital
!     Version: 0  (Data from the original Basis Set Exchange)
!----------------------------------------------------------------------

****
H     0
S    3   1.00
     18.7311370              0.03349460
      2.8253937              0.23472695
      0.6401217              0.81375733
S    1   1.00
      0.1612778              1.00000000
P    1   1.00
      1.5000000              1.0000000
P    1   1.00
      0.3750000              1.0000000
****
C     0
S    6   1.00
   3047.5249000              0.0018347
    457.3695100              0.0140373
    103.9486900              0.0688426
     29.2101550              0.2321844
      9.2866630              0.4679413
      3.1639270              0.3623120
SP   3   1.00
      7.8682724             -0.1193324              0.0689991
      1.8812885             -0.1608542              0.3164240
      0.5442493              1.1434564              0.7443083
SP   1   1.00
      0.1687144              1.0000000              1.0000000
D    1   1.00
      1.2520000              1.0000000
D    1   1.00
      0.3130000              1.0000000
F    1   1.00
      0.8000000              1.0000000
****
}

set {
opt_type min
reference rhf
freeze_core true
e_convergence 10
d_convergence 10
ensure_bt_convergence true
dft_spherical_points 590
dft_radial_points 99
}

e = energy('b3lyp')

print_out('Grab this energy {0}'.format(e))
--------------------------------------------------------------------------

    Molecular point group: c1

    Geometry (in Bohr), charge = 0, multiplicity = 1:

       Center              X                  Y                   Z               Mass
    ------------   -----------------  -----------------  -----------------  -----------------
         C           -0.001212029093    -0.003697513663     0.000001306935    12.000000000000
         C            0.000976566507     0.000015437337    -2.481783690665    12.000000000000
         H           -1.244302513593    -1.236061692563    -3.531015091265     1.007825032230
         H            1.243554818607     1.243938012137    -3.534556787165     1.007825032230
         C            0.000544132607     0.002506610137     2.481781670935    12.000000000000
         H            1.242447569607    -1.236957218263     3.531028601935     1.007825032230
         H           -1.245375155693     1.243076973237     3.534551763635     1.007825032230

  Charge       = 0
  Multiplicity = 1
  Basis Set: ANONYMOUSC55743F9
    Blend: 6-31G_2DFP_
  Basis Set: (ANONYMOUSC55743F9 AUX)
    Blend: DEF2-UNIVERSAL-JKFIT

    Orbital Energies [Eh]
    ---------------------

    Doubly Occupied:

       1A    -10.201509     2A    -10.184656     3A    -10.184626
       4A     -0.784870     5A     -0.699879     6A     -0.519288
       7A     -0.446530     8A     -0.441009     9A     -0.440897
      10A     -0.263655    11A     -0.263307

  @DF-RKS Final Energy:  -116.66711563986706

   => Energetics <=

    Nuclear Repulsion Energy =             59.0064688121260019
    One-Electron Energy =                -272.1736536609103041
    Two-Electron Energy =                 110.8315376604454769
    DFT Exchange-Correlation Energy =     -14.3314684515282380
    Empirical Dispersion Energy =           0.0000000000000000
    VV10 Nonlocal Energy =                  0.0000000000000000
    Total Energy =                       -116.6671156398670632

  Dipole Moment: [D]
     X:    -0.0022      Y:     0.0023      Z:     0.0000     Total:     0.0032

*** Psi4 exiting successfully. Buy a developer a beer!
