                               Psi4 1.4a2.dev629

  ==> Input File <==

--------------------------------------------------------------------------
import os
memory 14 GB

molecule {
 X   -1.4141948342   -1.4142322858    0.0000000000
 C   -0.0007246826   -0.0000001986    0.0000000001
 X    1.4142304970   -1.4141966230    0.0000000000
 C    0.0012379307   -0.0012415179   -2.4757441009
 H   -1.2428077727   -1.2419018679   -3.5237950679
 H    1.2419141995    1.2427814341   -3.5238130927
 C    0.0012380545    0.0012419516    2.4757441005
 H    1.2418939855   -1.2428009616    3.5238134740
 H   -1.2427873777    1.2419229492    3.5237946870
units bohr
}

basis {

assign 6-31g_2dfp_

[ 6-31g_2dfp_ ]
spherical

!----------------------------------------------------------------------
! Basis Set Exchange
! Version v0.8.13
! https://www.basissetexchange.org
!----------------------------------------------------------------------
!   Basis set: 6-31G(2df,p)
! Description: 6-31G(2df,p)
!        Role: orbital
!     Version: 0  (Data from the original Basis Set Exchange)
!----------------------------------------------------------------------

****
H     0
S    3   1.00
     18.7311370              0.03349460
      2.8253937              0.23472695
      0.6401217              0.81375733
S    1   1.00
      0.1612778              1.00000000
P    1   1.00
      1.5000000              1.0000000
P    1   1.00
      0.3750000              1.0000000
****
C     0
S    6   1.00
   3047.5249000              0.0018347
    457.3695100              0.0140373
    103.9486900              0.0688426
     29.2101550              0.2321844
      9.2866630              0.4679413
      3.1639270              0.3623120
SP   3   1.00
      7.8682724             -0.1193324              0.0689991
      1.8812885             -0.1608542              0.3164240
      0.5442493              1.1434564              0.7443083
SP   1   1.00
      0.1687144              1.0000000              1.0000000
D    1   1.00
      1.2520000              1.0000000
D    1   1.00
      0.3130000              1.0000000
F    1   1.00
      0.8000000              1.0000000
****
}

set {
opt_type min
reference rhf
freeze_core true
e_convergence 10
d_convergence 10
ensure_bt_convergence true
dft_spherical_points 590
dft_radial_points 99
}

e = energy('b3lyp')

print_out('Grab this energy {0}'.format(e))
--------------------------------------------------------------------------

    Molecular point group: c1

    Geometry (in Bohr), charge = 0, multiplicity = 1:

       Center              X                  Y                   Z               Mass
    ------------   -----------------  -----------------  -----------------  -----------------
         C           -0.001204674074    -0.000000308193     0.000000000180    12.000000000000
         C            0.000757939226    -0.001241627493    -2.475744100820    12.000000000000
         H           -1.243287764174    -1.241901977493    -3.523795067820     1.007825032230
         H            1.241434208026     1.242781324507    -3.523813092620     1.007825032230
         C            0.000758063026     0.001241842007     2.475744100580    12.000000000000
         H            1.241413994026    -1.242801071193     3.523813474080     1.007825032230
         H           -1.243267369174     1.241922839607     3.523794687080     1.007825032230

  Charge       = 0
  Multiplicity = 1
  Basis Set: ANONYMOUSF5442D49
    Blend: 6-31G_2DFP_
  Basis Set: (ANONYMOUSF5442D49 AUX)
    Blend: DEF2-UNIVERSAL-JKFIT

    Orbital Energies [Eh]
    ---------------------

    Doubly Occupied:

       1A    -10.200430     2A    -10.183852     3A    -10.183824
       4A     -0.785758     5A     -0.700383     6A     -0.518945
       7A     -0.446669     8A     -0.441479     9A     -0.441478
      10A     -0.263756    11A     -0.263756

  @DF-RKS Final Energy:  -116.66725106412201

   => Energetics <=

    Nuclear Repulsion Energy =             59.1227480104155134
    One-Electron Energy =                -272.4033546990494870
    Two-Electron Energy =                 110.9490595615930886
    DFT Exchange-Correlation Energy =     -14.3357039370811137
    Empirical Dispersion Energy =           0.0000000000000000
    VV10 Nonlocal Energy =                  0.0000000000000000
    Total Energy =                       -116.6672510641220128

  Dipole Moment: [D]
     X:    -0.0023      Y:     0.0000      Z:     0.0000     Total:     0.0023

*** Psi4 exiting successfully. Buy a developer a beer!
