                               Psi4 1.4a2.dev629

  ==> Input File <==

--------------------------------------------------------------------------
import os
memory 14 GB

molecule {
 X   -1.4143812034   -1.4140459166    0.0000000000
 C    0.0019295501   -0.0000019399   -0.0000000000
 X    1.4140400601   -1.4143870599    0.0000000000
 C   -0.0019952457   -0.0023551160   -2.4853628065
 H   -1.2410720057   -1.2409729284   -3.5313751863
 H    1.2422721559    1.2427695096   -3.5317663424
 C   -0.0019949632    0.0023561129    2.4853628023
 H    1.2424671348   -1.2425718821    3.5317687625
 H   -1.2412654830    1.2407821003    3.5313727704
units bohr
}

basis {

assign 6-31g_2dfp_

[ 6-31g_2dfp_ ]
spherical

!----------------------------------------------------------------------
! Basis Set Exchange
! Version v0.8.13
! https://www.basissetexchange.org
!----------------------------------------------------------------------
!   Basis set: 6-31G(2df,p)
! Description: 6-31G(2df,p)
!        Role: orbital
!     Version: 0  (Data from the original Basis Set Exchange)
!----------------------------------------------------------------------

****
H     0
S    3   1.00
     18.7311370              0.03349460
      2.8253937              0.23472695
      0.6401217              0.81375733
S    1   1.00
      0.1612778              1.00000000
P    1   1.00
      1.5000000              1.0000000
P    1   1.00
      0.3750000              1.0000000
****
C     0
S    6   1.00
   3047.5249000              0.0018347
    457.3695100              0.0140373
    103.9486900              0.0688426
     29.2101550              0.2321844
      9.2866630              0.4679413
      3.1639270              0.3623120
SP   3   1.00
      7.8682724             -0.1193324              0.0689991
      1.8812885             -0.1608542              0.3164240
      0.5442493              1.1434564              0.7443083
SP   1   1.00
      0.1687144              1.0000000              1.0000000
D    1   1.00
      1.2520000              1.0000000
D    1   1.00
      0.3130000              1.0000000
F    1   1.00
      0.8000000              1.0000000
****
}

set {
opt_type min
reference rhf
freeze_core true
e_convergence 10
d_convergence 10
ensure_bt_convergence true
dft_spherical_points 590
dft_radial_points 99
}

e = energy('b3lyp')

print_out('Grab this energy {0}'.format(e))
--------------------------------------------------------------------------

    Molecular point group: c1

    Geometry (in Bohr), charge = 0, multiplicity = 1:

       Center              X                  Y                   Z               Mass
    ------------   -----------------  -----------------  -----------------  -----------------
         C            0.002486796788    -0.000001828402     0.000000001153    12.000000000000
         C           -0.001437999012    -0.002355004502    -2.485362805347    12.000000000000
         H           -1.240514759012    -1.240972816902    -3.531375185147     1.007825032230
         H            1.242829402588     1.242769621098    -3.531766341247     1.007825032230
         C           -0.001437716512     0.002356224398     2.485362803453    12.000000000000
         H            1.243024381488    -1.242571770602     3.531768763653     1.007825032230
         H           -1.240708236312     1.240782211798     3.531372771553     1.007825032230

  Charge       = 0
  Multiplicity = 1
  Basis Set: ANONYMOUS4E545DA1
    Blend: 6-31G_2DFP_
  Basis Set: (ANONYMOUS4E545DA1 AUX)
    Blend: DEF2-UNIVERSAL-JKFIT

    Orbital Energies [Eh]
    ---------------------

    Doubly Occupied:

       1A    -10.202011     2A    -10.184705     3A    -10.184673
       4A     -0.784493     5A     -0.699856     6A     -0.519352
       7A     -0.446156     8A     -0.441383     9A     -0.441322
      10A     -0.263314    11A     -0.263313

  @DF-RKS Final Energy:  -116.66696556621271

   => Energetics <=

    Nuclear Repulsion Energy =             58.9705282286877051
    One-Electron Energy =                -272.1010025260517295
    Two-Electron Energy =                 110.7946214358375840
    DFT Exchange-Correlation Energy =     -14.3311127046862623
    Empirical Dispersion Energy =           0.0000000000000000
    VV10 Nonlocal Energy =                  0.0000000000000000
    Total Energy =                       -116.6669655662127099

  Dipole Moment: [D]
     X:    -0.0027      Y:     0.0000      Z:    -0.0000     Total:     0.0027

*** Psi4 exiting successfully. Buy a developer a beer!
