                               Psi4 1.4a2.dev629

  ==> Input File <==

--------------------------------------------------------------------------
import os
memory 14 GB

molecule {
 X   -1.4109942086   -1.4174329114    0.0000000000
 C    0.0045556283    0.0000083508   -0.0000000004
 X    1.4174142962   -1.4110128238    0.0000000000
 C   -0.0030737819   -0.0034473770   -2.4817746070
 H   -1.2449891756   -1.2401652793   -3.5362826085
 H    1.2425779891    1.2401200877   -3.5292667419
 C   -0.0030685675    0.0034607415    2.4817746269
 H    1.2389172160   -1.2437768423    3.5292563066
 H   -1.2413393959    1.2438189338    3.5362930243
units bohr
}

basis {

assign 6-31g_2dfp_

[ 6-31g_2dfp_ ]
spherical

!----------------------------------------------------------------------
! Basis Set Exchange
! Version v0.8.13
! https://www.basissetexchange.org
!----------------------------------------------------------------------
!   Basis set: 6-31G(2df,p)
! Description: 6-31G(2df,p)
!        Role: orbital
!     Version: 0  (Data from the original Basis Set Exchange)
!----------------------------------------------------------------------

****
H     0
S    3   1.00
     18.7311370              0.03349460
      2.8253937              0.23472695
      0.6401217              0.81375733
S    1   1.00
      0.1612778              1.00000000
P    1   1.00
      1.5000000              1.0000000
P    1   1.00
      0.3750000              1.0000000
****
C     0
S    6   1.00
   3047.5249000              0.0018347
    457.3695100              0.0140373
    103.9486900              0.0688426
     29.2101550              0.2321844
      9.2866630              0.4679413
      3.1639270              0.3623120
SP   3   1.00
      7.8682724             -0.1193324              0.0689991
      1.8812885             -0.1608542              0.3164240
      0.5442493              1.1434564              0.7443083
SP   1   1.00
      0.1687144              1.0000000              1.0000000
D    1   1.00
      1.2520000              1.0000000
D    1   1.00
      0.3130000              1.0000000
F    1   1.00
      0.8000000              1.0000000
****
}

set {
opt_type min
reference rhf
freeze_core true
e_convergence 10
d_convergence 10
ensure_bt_convergence true
dft_spherical_points 590
dft_radial_points 99
}

e = energy('b3lyp')

print_out('Grab this energy {0}'.format(e))
--------------------------------------------------------------------------

    Molecular point group: c1

    Geometry (in Bohr), charge = 0, multiplicity = 1:

       Center              X                  Y                   Z               Mass
    ------------   -----------------  -----------------  -----------------  -----------------
         C            0.005152956910     0.000001919352    -0.000000005754    12.000000000000
         C           -0.002476453290    -0.003453808448    -2.481774612354    12.000000000000
         H           -1.244391846990    -1.240171710748    -3.536282613854     1.007825032230
         H            1.243175317710     1.240113656252    -3.529266747254     1.007825032230
         C           -0.002471238890     0.003454310052     2.481774621546    12.000000000000
         H            1.239514544610    -1.243783273748     3.529256301246     1.007825032230
         H           -1.240742067290     1.243812502352     3.536293018946     1.007825032230

  Charge       = 0
  Multiplicity = 1
  Basis Set: ANONYMOUSFCA6C483
    Blend: 6-31G_2DFP_
  Basis Set: (ANONYMOUSFCA6C483 AUX)
    Blend: DEF2-UNIVERSAL-JKFIT

    Orbital Energies [Eh]
    ---------------------

    Doubly Occupied:

       1A    -10.201510     2A    -10.184656     3A    -10.184626
       4A     -0.784871     5A     -0.699879     6A     -0.519291
       7A     -0.446600     8A     -0.440949     9A     -0.440884
      10A     -0.263482    11A     -0.263477

  @DF-RKS Final Energy:  -116.66711258353942

   => Energetics <=

    Nuclear Repulsion Energy =             59.0065166484707717
    One-Electron Energy =                -272.1737490883987789
    Two-Electron Energy =                 110.8315871121013743
    DFT Exchange-Correlation Energy =     -14.3314672557127967
    Empirical Dispersion Energy =           0.0000000000000000
    VV10 Nonlocal Energy =                  0.0000000000000000
    Total Energy =                       -116.6671125835394207

  Dipole Moment: [D]
     X:    -0.0042      Y:    -0.0000      Z:     0.0000     Total:     0.0042

*** Psi4 exiting successfully. Buy a developer a beer!
