                               Psi4 1.4a2.dev629

  ==> Input File <==

--------------------------------------------------------------------------
import os
memory 14 GB

molecule {
 X   -1.4130334266   -1.4153936934   -0.0000000000
 C    0.0007302674    0.0030457097    0.0000001404
 X    1.4129995395   -1.4154275805   -0.0000000000
 C   -0.0008506876    0.0023364803   -2.4817879947
 H   -1.2436953375   -1.2412461411   -3.5332882257
 H    1.2439682528    1.2389493308   -3.5322944083
 C   -0.0016230977   -0.0001532664    2.4817857029
 H    1.2446033808   -1.2403474697    3.5332753578
 H   -1.2430988911    1.2398095102    3.5323094276
units bohr
}

basis {

assign 6-31g_2dfp_

[ 6-31g_2dfp_ ]
spherical

!----------------------------------------------------------------------
! Basis Set Exchange
! Version v0.8.13
! https://www.basissetexchange.org
!----------------------------------------------------------------------
!   Basis set: 6-31G(2df,p)
! Description: 6-31G(2df,p)
!        Role: orbital
!     Version: 0  (Data from the original Basis Set Exchange)
!----------------------------------------------------------------------

****
H     0
S    3   1.00
     18.7311370              0.03349460
      2.8253937              0.23472695
      0.6401217              0.81375733
S    1   1.00
      0.1612778              1.00000000
P    1   1.00
      1.5000000              1.0000000
P    1   1.00
      0.3750000              1.0000000
****
C     0
S    6   1.00
   3047.5249000              0.0018347
    457.3695100              0.0140373
    103.9486900              0.0688426
     29.2101550              0.2321844
      9.2866630              0.4679413
      3.1639270              0.3623120
SP   3   1.00
      7.8682724             -0.1193324              0.0689991
      1.8812885             -0.1608542              0.3164240
      0.5442493              1.1434564              0.7443083
SP   1   1.00
      0.1687144              1.0000000              1.0000000
D    1   1.00
      1.2520000              1.0000000
D    1   1.00
      0.3130000              1.0000000
F    1   1.00
      0.8000000              1.0000000
****
}

set {
opt_type min
reference rhf
freeze_core true
e_convergence 10
d_convergence 10
ensure_bt_convergence true
dft_spherical_points 590
dft_radial_points 99
}

e = energy('b3lyp')

print_out('Grab this energy {0}'.format(e))
--------------------------------------------------------------------------

    Molecular point group: c1

    Geometry (in Bohr), charge = 0, multiplicity = 1:

       Center              X                  Y                   Z               Mass
    ------------   -----------------  -----------------  -----------------  -----------------
         C            0.001208165982     0.001549627109     0.000000731152    12.000000000000
         C           -0.000372789018     0.000840397709    -2.481787403948    12.000000000000
         H           -1.243217438918    -1.242742223691    -3.533287634948     1.007825032230
         H            1.244446151382     1.237453248209    -3.532293817548     1.007825032230
         C           -0.001145199118    -0.001649348991     2.481786293652    12.000000000000
         H            1.245081279382    -1.241843552291     3.533275948552     1.007825032230
         H           -1.242620992518     1.238313427609     3.532310018352     1.007825032230

  Charge       = 0
  Multiplicity = 1
  Basis Set: ANONYMOUS202CF0CB
    Blend: 6-31G_2DFP_
  Basis Set: (ANONYMOUS202CF0CB AUX)
    Blend: DEF2-UNIVERSAL-JKFIT

    Orbital Energies [Eh]
    ---------------------

    Doubly Occupied:

       1A    -10.201510     2A    -10.184657     3A    -10.184627
       4A     -0.784870     5A     -0.699879     6A     -0.519288
       7A     -0.446533     8A     -0.441005     9A     -0.440899
      10A     -0.263648    11A     -0.263315

  @DF-RKS Final Energy:  -116.66711969223840

   => Energetics <=

    Nuclear Repulsion Energy =             59.0064371978315734
    One-Electron Energy =                -272.1735952141020221
    Two-Electron Energy =                 110.8315056991069838
    DFT Exchange-Correlation Energy =     -14.3314673750749542
    Empirical Dispersion Energy =           0.0000000000000000
    VV10 Nonlocal Energy =                  0.0000000000000000
    Total Energy =                       -116.6671196922384013

  Dipole Moment: [D]
     X:     0.0023      Y:    -0.0009      Z:     0.0000     Total:     0.0024

*** Psi4 exiting successfully. Buy a developer a beer!
