                               Psi4 1.4a2.dev629

  ==> Input File <==

--------------------------------------------------------------------------
import os
memory 14 GB

molecule {
 X   -1.4191372832   -1.4092898368   -0.0000000000
 C   -0.0019334412   -0.0015894187    0.0000071784
 X    1.4194783241   -1.4089487959    0.0000000000
 C    0.0004279490    0.0002805886   -2.4817797337
 H   -1.2451875838   -1.2424805418   -3.5377798430
 H    1.2417279812    1.2384534943   -3.5278028111
 C    0.0035644984   -0.0044202161    2.4817882141
 H    1.2437931610   -1.2408771552    3.5373562326
 H   -1.2427336056    1.2404447615    3.5282107626
units bohr
}

basis {

assign 6-31g_2dfp_

[ 6-31g_2dfp_ ]
spherical

!----------------------------------------------------------------------
! Basis Set Exchange
! Version v0.8.13
! https://www.basissetexchange.org
!----------------------------------------------------------------------
!   Basis set: 6-31G(2df,p)
! Description: 6-31G(2df,p)
!        Role: orbital
!     Version: 0  (Data from the original Basis Set Exchange)
!----------------------------------------------------------------------

****
H     0
S    3   1.00
     18.7311370              0.03349460
      2.8253937              0.23472695
      0.6401217              0.81375733
S    1   1.00
      0.1612778              1.00000000
P    1   1.00
      1.5000000              1.0000000
P    1   1.00
      0.3750000              1.0000000
****
C     0
S    6   1.00
   3047.5249000              0.0018347
    457.3695100              0.0140373
    103.9486900              0.0688426
     29.2101550              0.2321844
      9.2866630              0.4679413
      3.1639270              0.3623120
SP   3   1.00
      7.8682724             -0.1193324              0.0689991
      1.8812885             -0.1608542              0.3164240
      0.5442493              1.1434564              0.7443083
SP   1   1.00
      0.1687144              1.0000000              1.0000000
D    1   1.00
      1.2520000              1.0000000
D    1   1.00
      0.3130000              1.0000000
F    1   1.00
      0.8000000              1.0000000
****
}

set {
opt_type min
reference rhf
freeze_core true
e_convergence 10
d_convergence 10
ensure_bt_convergence true
dft_spherical_points 590
dft_radial_points 99
}

e = energy('b3lyp')

print_out('Grab this energy {0}'.format(e))
--------------------------------------------------------------------------

    Molecular point group: c1

    Geometry (in Bohr), charge = 0, multiplicity = 1:

       Center              X                  Y                   Z               Mass
    ------------   -----------------  -----------------  -----------------  -----------------
         C           -0.002490236675     0.000240221872     0.000002878660    12.000000000000
         C           -0.000128846475     0.002110229172    -2.481784033440    12.000000000000
         H           -1.245744379275    -1.240650901228    -3.537784142740     1.007825032230
         H            1.241171185725     1.240283134872    -3.527807110840     1.007825032230
         C            0.003007702925    -0.002590575528     2.481783914360    12.000000000000
         H            1.243236365525    -1.239047514628     3.537351932860     1.007825032230
         H           -1.243290401075     1.242274402072     3.528206462860     1.007825032230

  Charge       = 0
  Multiplicity = 1
  Basis Set: ANONYMOUS879BECDB
    Blend: 6-31G_2DFP_
  Basis Set: (ANONYMOUS879BECDB AUX)
    Blend: DEF2-UNIVERSAL-JKFIT

    Orbital Energies [Eh]
    ---------------------

    Doubly Occupied:

       1A    -10.201511     2A    -10.184656     3A    -10.184627
       4A     -0.784871     5A     -0.699880     6A     -0.519293
       7A     -0.446587     8A     -0.440988     9A     -0.440859
      10A     -0.263604    11A     -0.263357

  @DF-RKS Final Energy:  -116.66710766727402

   => Energetics <=

    Nuclear Repulsion Energy =             59.0065020240432290
    One-Electron Energy =                -272.1736905965360620
    Two-Electron Energy =                 110.8315513825643848
    DFT Exchange-Correlation Energy =     -14.3314704773455848
    Empirical Dispersion Energy =           0.0000000000000000
    VV10 Nonlocal Energy =                  0.0000000000000000
    Total Energy =                       -116.6671076672740242

  Dipole Moment: [D]
     X:     0.0027      Y:     0.0003      Z:     0.0000     Total:     0.0027

*** Psi4 exiting successfully. Buy a developer a beer!
