                               Psi4 1.4a2.dev629

  ==> Input File <==

--------------------------------------------------------------------------
import os
memory 14 GB

molecule {
 X   -1.4142135600   -1.4142135600   -0.0000000000
 C   -0.0000000000    0.0000000000    0.0027807179
 X    1.4142135600   -1.4142135600    0.0000000000
 C   -0.0000000000   -0.0000000000   -2.4785136323
 H   -1.2422461989   -1.2422461989   -3.5231183135
 H    1.2422461989    1.2422461989   -3.5231183135
 C   -0.0000000000    0.0000000000    2.4729767478
 H    1.2424535031   -1.2424535031    3.5244963968
 H   -1.2424535031    1.2424535031    3.5244963968
units bohr
}

basis {

assign 6-31g_2dfp_

[ 6-31g_2dfp_ ]
spherical

!----------------------------------------------------------------------
! Basis Set Exchange
! Version v0.8.13
! https://www.basissetexchange.org
!----------------------------------------------------------------------
!   Basis set: 6-31G(2df,p)
! Description: 6-31G(2df,p)
!        Role: orbital
!     Version: 0  (Data from the original Basis Set Exchange)
!----------------------------------------------------------------------

****
H     0
S    3   1.00
     18.7311370              0.03349460
      2.8253937              0.23472695
      0.6401217              0.81375733
S    1   1.00
      0.1612778              1.00000000
P    1   1.00
      1.5000000              1.0000000
P    1   1.00
      0.3750000              1.0000000
****
C     0
S    6   1.00
   3047.5249000              0.0018347
    457.3695100              0.0140373
    103.9486900              0.0688426
     29.2101550              0.2321844
      9.2866630              0.4679413
      3.1639270              0.3623120
SP   3   1.00
      7.8682724             -0.1193324              0.0689991
      1.8812885             -0.1608542              0.3164240
      0.5442493              1.1434564              0.7443083
SP   1   1.00
      0.1687144              1.0000000              1.0000000
D    1   1.00
      1.2520000              1.0000000
D    1   1.00
      0.3130000              1.0000000
F    1   1.00
      0.8000000              1.0000000
****
}

set {
opt_type min
reference rhf
freeze_core true
e_convergence 10
d_convergence 10
ensure_bt_convergence true
dft_spherical_points 590
dft_radial_points 99
}

e = energy('b3lyp')

print_out('Grab this energy {0}'.format(e))
--------------------------------------------------------------------------

    Molecular point group: c2v

    Geometry (in Bohr), charge = 0, multiplicity = 1:

       Center              X                  Y                   Z               Mass
    ------------   -----------------  -----------------  -----------------  -----------------
         C            0.000000000000     0.000000000000     0.003537532328    12.000000000000
         C            0.000000000000     0.000000000000    -2.477756817872    12.000000000000
         H           -1.756801422291    -0.000000000000    -3.522361499072     1.007825032230
         H            1.756801422291     0.000000000000    -3.522361499072     1.007825032230
         C            0.000000000000     0.000000000000     2.473733562228    12.000000000000
         H            0.000000000000    -1.757094594702     3.525253211228     1.007825032230
         H           -0.000000000000     1.757094594702     3.525253211228     1.007825032230

  Charge       = 0
  Multiplicity = 1
  Basis Set: ANONYMOUS320E1655
    Blend: 6-31G_2DFP_
  Basis Set: (ANONYMOUS320E1655 AUX)
    Blend: DEF2-UNIVERSAL-JKFIT

    Orbital Energies [Eh]
    ---------------------

    Doubly Occupied:

       1A1   -10.200427     2A1   -10.183957     3A1   -10.183718
       4A1    -0.785765     5A1    -0.700379     6A1    -0.518945
       7A1    -0.446664     1B1    -0.441595     1B2    -0.441366
       2B1    -0.264439     2B2    -0.263074

  @DF-RKS Final Energy:  -116.66722988348899

   => Energetics <=

    Nuclear Repulsion Energy =             59.1228992034671492
    One-Electron Energy =                -272.4036106654611444
    Two-Electron Energy =                 110.9491961662694592
    DFT Exchange-Correlation Energy =     -14.3357145877644463
    Empirical Dispersion Energy =           0.0000000000000000
    VV10 Nonlocal Energy =                  0.0000000000000000
    Total Energy =                       -116.6672298834889858

  Dipole Moment: [D]
     X:     0.0000      Y:     0.0000      Z:     0.0086     Total:     0.0086

*** Psi4 exiting successfully. Buy a developer a beer!
