                               Psi4 1.4a2.dev629

  ==> Input File <==

--------------------------------------------------------------------------
import os
memory 14 GB

molecule {
 X   -1.4140176258   -1.4144094942   -0.0000000000
 C   -0.0007284788    0.0019453059    0.0000005287
 X    1.4140399903   -1.4143871297   -0.0000000000
 C   -0.0011049461   -0.0032199510   -2.4817828077
 H   -1.2416907532   -1.2407586141   -3.5325787458
 H    1.2425915871    1.2428261216   -3.5329933527
 C    0.0035854230   -0.0007340615    2.4817840730
 H    1.2407908408   -1.2416497513    3.5325927356
 H   -1.2434660372    1.2419604543    3.5329775690
units bohr
}

basis {

assign 6-31g_2dfp_

[ 6-31g_2dfp_ ]
spherical

!----------------------------------------------------------------------
! Basis Set Exchange
! Version v0.8.13
! https://www.basissetexchange.org
!----------------------------------------------------------------------
!   Basis set: 6-31G(2df,p)
! Description: 6-31G(2df,p)
!        Role: orbital
!     Version: 0  (Data from the original Basis Set Exchange)
!----------------------------------------------------------------------

****
H     0
S    3   1.00
     18.7311370              0.03349460
      2.8253937              0.23472695
      0.6401217              0.81375733
S    1   1.00
      0.1612778              1.00000000
P    1   1.00
      1.5000000              1.0000000
P    1   1.00
      0.3750000              1.0000000
****
C     0
S    6   1.00
   3047.5249000              0.0018347
    457.3695100              0.0140373
    103.9486900              0.0688426
     29.2101550              0.2321844
      9.2866630              0.4679413
      3.1639270              0.3623120
SP   3   1.00
      7.8682724             -0.1193324              0.0689991
      1.8812885             -0.1608542              0.3164240
      0.5442493              1.1434564              0.7443083
SP   1   1.00
      0.1687144              1.0000000              1.0000000
D    1   1.00
      1.2520000              1.0000000
D    1   1.00
      0.3130000              1.0000000
F    1   1.00
      0.8000000              1.0000000
****
}

set {
opt_type min
reference rhf
freeze_core true
e_convergence 10
d_convergence 10
ensure_bt_convergence true
dft_spherical_points 590
dft_radial_points 99
}

e = energy('b3lyp')

print_out('Grab this energy {0}'.format(e))
--------------------------------------------------------------------------

    Molecular point group: c1

    Geometry (in Bohr), charge = 0, multiplicity = 1:

       Center              X                  Y                   Z               Mass
    ------------   -----------------  -----------------  -----------------  -----------------
         C           -0.001208996050     0.002487573052     0.000000036084    12.000000000000
         C           -0.001585463350    -0.002677683848    -2.481783300316    12.000000000000
         H           -1.242171270450    -1.240216346948    -3.532579238416     1.007825032230
         H            1.242111069850     1.243368388752    -3.532993845316     1.007825032230
         C            0.003104905750    -0.000191794348     2.481783580384    12.000000000000
         H            1.240310323550    -1.241107484148     3.532592242984     1.007825032230
         H           -1.243946554450     1.242502721452     3.532977076384     1.007825032230

  Charge       = 0
  Multiplicity = 1
  Basis Set: ANONYMOUS7458494D
    Blend: 6-31G_2DFP_
  Basis Set: (ANONYMOUS7458494D AUX)
    Blend: DEF2-UNIVERSAL-JKFIT

    Orbital Energies [Eh]
    ---------------------

    Doubly Occupied:

       1A    -10.201510     2A    -10.184657     3A    -10.184627
       4A     -0.784870     5A     -0.699880     6A     -0.519294
       7A     -0.446587     8A     -0.440944     9A     -0.440903
      10A     -0.263497    11A     -0.263466

  @DF-RKS Final Energy:  -116.66711153882315

   => Energetics <=

    Nuclear Repulsion Energy =             59.0064865359974036
    One-Electron Energy =                -272.1736669825457398
    Two-Electron Energy =                 110.8315388138795328
    DFT Exchange-Correlation Energy =     -14.3314699061543323
    Empirical Dispersion Energy =           0.0000000000000000
    VV10 Nonlocal Energy =                  0.0000000000000000
    Total Energy =                       -116.6671115388231499

  Dipole Moment: [D]
     X:    -0.0023      Y:    -0.0027      Z:    -0.0000     Total:     0.0035

*** Psi4 exiting successfully. Buy a developer a beer!
