                               Psi4 1.4a2.dev629

  ==> Input File <==

--------------------------------------------------------------------------
import os
memory 14 GB

molecule {
 X   -1.4105992097   -1.4178279103    0.0000000000
 C    0.0093196331    0.0007149864    0.0000014376
 X    1.4178317395   -1.4105953805   -0.0000000000
 C    0.0019986270    0.0016004005   -2.4817763464
 H   -1.2489732075   -1.2375310418   -3.5244957184
 H    1.2390668385    1.2422320255   -3.5410266583
 C   -0.0004928994   -0.0040937570    2.4817661202
 H    1.2358261545   -1.2454622469    3.5410375242
 H   -1.2439776759    1.2425358041    3.5244936411
units bohr
}

basis {

assign 6-31g_2dfp_

[ 6-31g_2dfp_ ]
spherical

!----------------------------------------------------------------------
! Basis Set Exchange
! Version v0.8.13
! https://www.basissetexchange.org
!----------------------------------------------------------------------
!   Basis set: 6-31G(2df,p)
! Description: 6-31G(2df,p)
!        Role: orbital
!     Version: 0  (Data from the original Basis Set Exchange)
!----------------------------------------------------------------------

****
H     0
S    3   1.00
     18.7311370              0.03349460
      2.8253937              0.23472695
      0.6401217              0.81375733
S    1   1.00
      0.1612778              1.00000000
P    1   1.00
      1.5000000              1.0000000
P    1   1.00
      0.3750000              1.0000000
****
C     0
S    6   1.00
   3047.5249000              0.0018347
    457.3695100              0.0140373
    103.9486900              0.0688426
     29.2101550              0.2321844
      9.2866630              0.4679413
      3.1639270              0.3623120
SP   3   1.00
      7.8682724             -0.1193324              0.0689991
      1.8812885             -0.1608542              0.3164240
      0.5442493              1.1434564              0.7443083
SP   1   1.00
      0.1687144              1.0000000              1.0000000
D    1   1.00
      1.2520000              1.0000000
D    1   1.00
      0.3130000              1.0000000
F    1   1.00
      0.8000000              1.0000000
****
}

set {
opt_type min
reference rhf
freeze_core true
e_convergence 10
d_convergence 10
ensure_bt_convergence true
dft_spherical_points 590
dft_radial_points 99
}

e = energy('b3lyp')

print_out('Grab this energy {0}'.format(e))
--------------------------------------------------------------------------

    Molecular point group: c1

    Geometry (in Bohr), charge = 0, multiplicity = 1:

       Center              X                  Y                   Z               Mass
    ------------   -----------------  -----------------  -----------------  -----------------
         C            0.006529188271     0.001203404573     0.000003850857    12.000000000000
         C           -0.000791817829     0.002088818673    -2.481773933143    12.000000000000
         H           -1.251763652329    -1.237042623627    -3.524493305143     1.007825032230
         H            1.236276393671     1.242720443673    -3.541024245043     1.007825032230
         C           -0.003283344229    -0.003605338827     2.481768533457    12.000000000000
         H            1.233035709671    -1.244973828727     3.541039937457     1.007825032230
         H           -1.246768120729     1.243024222273     3.524496054357     1.007825032230

  Charge       = 0
  Multiplicity = 1
  Basis Set: ANONYMOUSDF32F153
    Blend: 6-31G_2DFP_
  Basis Set: (ANONYMOUSDF32F153 AUX)
    Blend: DEF2-UNIVERSAL-JKFIT

    Orbital Energies [Eh]
    ---------------------

    Doubly Occupied:

       1A    -10.201510     2A    -10.184656     3A    -10.184627
       4A     -0.784871     5A     -0.699878     6A     -0.519287
       7A     -0.446531     8A     -0.440953     9A     -0.440952
      10A     -0.263483    11A     -0.263478

  @DF-RKS Final Energy:  -116.66711867610547

   => Energetics <=

    Nuclear Repulsion Energy =             59.0065186245324256
    One-Electron Energy =                -272.1737649480552363
    Two-Electron Energy =                 110.8315949203916659
    DFT Exchange-Correlation Energy =     -14.3314672729743222
    Empirical Dispersion Energy =           0.0000000000000000
    VV10 Nonlocal Energy =                  0.0000000000000000
    Total Energy =                       -116.6671186761054742

  Dipole Moment: [D]
     X:    -0.0051      Y:     0.0023      Z:     0.0000     Total:     0.0055

*** Psi4 exiting successfully. Buy a developer a beer!
