                               Psi4 1.4a2.dev629

  ==> Input File <==

--------------------------------------------------------------------------
import os
memory 14 GB

molecule {
 X   -1.4106212902   -1.4178058298    0.0000000000
 C    0.0093192712   -0.0000154667   -0.0000000033
 X    1.4178403902   -1.4105867298   -0.0000000000
 C    0.0007752166    0.0028440031   -2.4781940856
 H   -1.2487137401   -1.2381810611   -3.5257178915
 H    1.2396730134    1.2419872605   -3.5422565069
 C    0.0007692208   -0.0028590125    2.4781940766
 H    1.2355622069   -1.2460994811    3.5422485951
 H   -1.2446042887    1.2422891973    3.5257258156
units bohr
}

basis {

assign 6-31g_2dfp_

[ 6-31g_2dfp_ ]
spherical

!----------------------------------------------------------------------
! Basis Set Exchange
! Version v0.8.13
! https://www.basissetexchange.org
!----------------------------------------------------------------------
!   Basis set: 6-31G(2df,p)
! Description: 6-31G(2df,p)
!        Role: orbital
!     Version: 0  (Data from the original Basis Set Exchange)
!----------------------------------------------------------------------

****
H     0
S    3   1.00
     18.7311370              0.03349460
      2.8253937              0.23472695
      0.6401217              0.81375733
S    1   1.00
      0.1612778              1.00000000
P    1   1.00
      1.5000000              1.0000000
P    1   1.00
      0.3750000              1.0000000
****
C     0
S    6   1.00
   3047.5249000              0.0018347
    457.3695100              0.0140373
    103.9486900              0.0688426
     29.2101550              0.2321844
      9.2866630              0.4679413
      3.1639270              0.3623120
SP   3   1.00
      7.8682724             -0.1193324              0.0689991
      1.8812885             -0.1608542              0.3164240
      0.5442493              1.1434564              0.7443083
SP   1   1.00
      0.1687144              1.0000000              1.0000000
D    1   1.00
      1.2520000              1.0000000
D    1   1.00
      0.3130000              1.0000000
F    1   1.00
      0.8000000              1.0000000
****
}

set {
opt_type min
reference rhf
freeze_core true
e_convergence 10
d_convergence 10
ensure_bt_convergence true
dft_spherical_points 590
dft_radial_points 99
}

e = energy('b3lyp')

print_out('Grab this energy {0}'.format(e))
--------------------------------------------------------------------------

    Molecular point group: c1

    Geometry (in Bohr), charge = 0, multiplicity = 1:

       Center              X                  Y                   Z               Mass
    ------------   -----------------  -----------------  -----------------  -----------------
         C            0.006517958333    -0.000006228190     0.000000000077    12.000000000000
         C           -0.002026096267     0.002853241610    -2.478194082223    12.000000000000
         H           -1.251515052967    -1.238171822590    -3.525717888123     1.007825032230
         H            1.236871700533     1.241996499010    -3.542256503523     1.007825032230
         C           -0.002032092067    -0.002849773990     2.478194079977    12.000000000000
         H            1.232760894033    -1.246090242590     3.542248598477     1.007825032230
         H           -1.247405601567     1.242298435810     3.525725818977     1.007825032230

  Charge       = 0
  Multiplicity = 1
  Basis Set: ANONYMOUS394B63AD
    Blend: 6-31G_2DFP_
  Basis Set: (ANONYMOUS394B63AD AUX)
    Blend: DEF2-UNIVERSAL-JKFIT

    Orbital Energies [Eh]
    ---------------------

    Doubly Occupied:

       1A    -10.201007     2A    -10.184608     3A    -10.184579
       4A     -0.785250     5A     -0.699903     6A     -0.519228
       7A     -0.446969     8A     -0.440523     9A     -0.440522
      10A     -0.263649    11A     -0.263646

  @DF-RKS Final Energy:  -116.66723684958808

   => Energetics <=

    Nuclear Repulsion Energy =             59.0426586555069335
    One-Electron Energy =                -272.2467199778192253
    Two-Electron Energy =                 110.8686604169066641
    DFT Exchange-Correlation Energy =     -14.3318359441824388
    Empirical Dispersion Energy =           0.0000000000000000
    VV10 Nonlocal Energy =                  0.0000000000000000
    Total Energy =                       -116.6672368495880789

  Dipole Moment: [D]
     X:    -0.0051      Y:     0.0000      Z:     0.0000     Total:     0.0051

*** Psi4 exiting successfully. Buy a developer a beer!
