                               Psi4 1.4a2.dev629

  ==> Input File <==

--------------------------------------------------------------------------
import os
memory 14 GB

molecule {
 X   -1.4140342357   -1.4143928843   -0.0000000000
 C   -0.0019215111   -0.0000048550    0.0060729332
 X    1.4143802680   -1.4140468520   -0.0000000000
 C    0.0019950134    0.0023575179   -2.4800344534
 H   -1.2434003635   -1.2434989004   -3.5353882246
 H    1.2421915189    1.2417085713   -3.5349788386
 C    0.0019928238   -0.0023515774    2.4835346154
 H    1.2405266246   -1.2404292692    3.5301976851
 H   -1.2417301384    1.2422311292    3.5305962830
units bohr
}

basis {

assign 6-31g_2dfp_

[ 6-31g_2dfp_ ]
spherical

!----------------------------------------------------------------------
! Basis Set Exchange
! Version v0.8.13
! https://www.basissetexchange.org
!----------------------------------------------------------------------
!   Basis set: 6-31G(2df,p)
! Description: 6-31G(2df,p)
!        Role: orbital
!     Version: 0  (Data from the original Basis Set Exchange)
!----------------------------------------------------------------------

****
H     0
S    3   1.00
     18.7311370              0.03349460
      2.8253937              0.23472695
      0.6401217              0.81375733
S    1   1.00
      0.1612778              1.00000000
P    1   1.00
      1.5000000              1.0000000
P    1   1.00
      0.3750000              1.0000000
****
C     0
S    6   1.00
   3047.5249000              0.0018347
    457.3695100              0.0140373
    103.9486900              0.0688426
     29.2101550              0.2321844
      9.2866630              0.4679413
      3.1639270              0.3623120
SP   3   1.00
      7.8682724             -0.1193324              0.0689991
      1.8812885             -0.1608542              0.3164240
      0.5442493              1.1434564              0.7443083
SP   1   1.00
      0.1687144              1.0000000              1.0000000
D    1   1.00
      1.2520000              1.0000000
D    1   1.00
      0.3130000              1.0000000
F    1   1.00
      0.8000000              1.0000000
****
}

set {
opt_type min
reference rhf
freeze_core true
e_convergence 10
d_convergence 10
ensure_bt_convergence true
dft_spherical_points 590
dft_radial_points 99
}

e = energy('b3lyp')

print_out('Grab this energy {0}'.format(e))
--------------------------------------------------------------------------

    Molecular point group: c1

    Geometry (in Bohr), charge = 0, multiplicity = 1:

       Center              X                  Y                   Z               Mass
    ------------   -----------------  -----------------  -----------------  -----------------
         C           -0.002480190882    -0.000005470696     0.003444261706    12.000000000000
         C            0.001436333618     0.002356902204    -2.482663124894    12.000000000000
         H           -1.243959043282    -1.243499516096    -3.538016896094     1.007825032230
         H            1.241632839118     1.241707955604    -3.537607510094     1.007825032230
         C            0.001434144018    -0.002352193096     2.480905943906    12.000000000000
         H            1.239967944818    -1.240429884896     3.527569013606     1.007825032230
         H           -1.242288818182     1.242230513504     3.527967611506     1.007825032230

  Charge       = 0
  Multiplicity = 1
  Basis Set: ANONYMOUSD3070C47
    Blend: 6-31G_2DFP_
  Basis Set: (ANONYMOUSD3070C47 AUX)
    Blend: DEF2-UNIVERSAL-JKFIT

    Orbital Energies [Eh]
    ---------------------

    Doubly Occupied:

       1A    -10.201510     2A    -10.185103     3A    -10.184180
       4A     -0.784881     5A     -0.699870     6A     -0.519294
       7A     -0.446587     8A     -0.441765     9A     -0.440084
      10A     -0.264018    11A     -0.262946

  @DF-RKS Final Energy:  -116.66709077650910

   => Energetics <=

    Nuclear Repulsion Energy =             59.0066174870594295
    One-Electron Energy =                -272.1738739339140238
    Two-Electron Energy =                 110.8316431741790780
    DFT Exchange-Correlation Energy =     -14.3314775038335895
    Empirical Dispersion Energy =           0.0000000000000000
    VV10 Nonlocal Energy =                  0.0000000000000000
    Total Energy =                       -116.6670907765090988

  Dipole Moment: [D]
     X:     0.0027      Y:     0.0000      Z:     0.0074     Total:     0.0079

*** Psi4 exiting successfully. Buy a developer a beer!
