                               Psi4 1.4a2.dev629

  ==> Input File <==

--------------------------------------------------------------------------
import os
memory 14 GB

molecule {
 X   -1.4072321485   -1.4211949715   -0.0000000000
 C   -0.0000000000   -0.0083156361   -0.0000000000
 X    1.4072321485   -1.4211949715    0.0000000000
 C   -0.0026083444    0.0003113329   -2.4817723752
 H   -1.2431504065   -1.2370882984   -3.5403282291
 H    1.2396659129    1.2479161951   -3.5252043448
 C    0.0026083444    0.0003113329    2.4817723752
 H    1.2431504065   -1.2370882984    3.5403282291
 H   -1.2396659129    1.2479161951    3.5252043448
units bohr
}

basis {

assign 6-31g_2dfp_

[ 6-31g_2dfp_ ]
spherical

!----------------------------------------------------------------------
! Basis Set Exchange
! Version v0.8.13
! https://www.basissetexchange.org
!----------------------------------------------------------------------
!   Basis set: 6-31G(2df,p)
! Description: 6-31G(2df,p)
!        Role: orbital
!     Version: 0  (Data from the original Basis Set Exchange)
!----------------------------------------------------------------------

****
H     0
S    3   1.00
     18.7311370              0.03349460
      2.8253937              0.23472695
      0.6401217              0.81375733
S    1   1.00
      0.1612778              1.00000000
P    1   1.00
      1.5000000              1.0000000
P    1   1.00
      0.3750000              1.0000000
****
C     0
S    6   1.00
   3047.5249000              0.0018347
    457.3695100              0.0140373
    103.9486900              0.0688426
     29.2101550              0.2321844
      9.2866630              0.4679413
      3.1639270              0.3623120
SP   3   1.00
      7.8682724             -0.1193324              0.0689991
      1.8812885             -0.1608542              0.3164240
      0.5442493              1.1434564              0.7443083
SP   1   1.00
      0.1687144              1.0000000              1.0000000
D    1   1.00
      1.2520000              1.0000000
D    1   1.00
      0.3130000              1.0000000
F    1   1.00
      0.8000000              1.0000000
****
}

set {
opt_type min
reference rhf
freeze_core true
e_convergence 10
d_convergence 10
ensure_bt_convergence true
dft_spherical_points 590
dft_radial_points 99
}

e = energy('b3lyp')

print_out('Grab this energy {0}'.format(e))
--------------------------------------------------------------------------

    Molecular point group: c2

    Geometry (in Bohr), charge = 0, multiplicity = 1:

       Center              X                  Y                   Z               Mass
    ------------   -----------------  -----------------  -----------------  -----------------
         C           -0.000000000000     0.000000000000    -0.006554754173    12.000000000000
         C            0.002608344400    -2.481772375200     0.002072214827    12.000000000000
         H            1.243150406500    -3.540328229100    -1.235327416473     1.007825032230
         H           -1.239665912900    -3.525204344800     1.249677077027     1.007825032230
         C           -0.002608344400     2.481772375200     0.002072214827    12.000000000000
         H           -1.243150406500     3.540328229100    -1.235327416473     1.007825032230
         H            1.239665912900     3.525204344800     1.249677077027     1.007825032230

  Charge       = 0
  Multiplicity = 1
  Basis Set: ANONYMOUS35ABB60E
    Blend: 6-31G_2DFP_
  Basis Set: (ANONYMOUS35ABB60E AUX)
    Blend: DEF2-UNIVERSAL-JKFIT

    Orbital Energies [Eh]
    ---------------------

    Doubly Occupied:

       1A    -10.201509     2A    -10.184656     1B    -10.184627
       3A     -0.784870     2B     -0.699877     4A     -0.519287
       3B     -0.446530     5A     -0.440969     4B     -0.440937
       5B     -0.263530     6A     -0.263431

  @DF-RKS Final Energy:  -116.66711970016607

   => Energetics <=

    Nuclear Repulsion Energy =             59.0065051297015657
    One-Electron Energy =                -272.1737408851136024
    Two-Electron Energy =                 110.8315832570998793
    DFT Exchange-Correlation Energy =     -14.3314672018539184
    Empirical Dispersion Energy =           0.0000000000000000
    VV10 Nonlocal Energy =                  0.0000000000000000
    Total Energy =                       -116.6671197001660687

  Dipole Moment: [D]
     X:     0.0000      Y:     0.0000      Z:     0.0050     Total:     0.0050

*** Psi4 exiting successfully. Buy a developer a beer!
