                               Psi4 1.4a2.dev629

  ==> Input File <==

--------------------------------------------------------------------------
import os
memory 14 GB

molecule {
 X   -1.4130173540   -1.4154097660    0.0000000000
 C    0.0000023577    0.0030459048   -0.0027798827
 X    1.4130174077   -1.4154097123    0.0000000000
 C    0.0003854859    0.0010930120   -2.4790186629
 H   -1.2442483200   -1.2408954142   -3.5339741300
 H    1.2436321989    1.2394763972   -3.5329954491
 C   -0.0003870512    0.0010897677    2.4845572177
 H    1.2440483421   -1.2406950666    3.5325956063
 H   -1.2434330672    1.2392777576    3.5316153007
units bohr
}

basis {

assign 6-31g_2dfp_

[ 6-31g_2dfp_ ]
spherical

!----------------------------------------------------------------------
! Basis Set Exchange
! Version v0.8.13
! https://www.basissetexchange.org
!----------------------------------------------------------------------
!   Basis set: 6-31G(2df,p)
! Description: 6-31G(2df,p)
!        Role: orbital
!     Version: 0  (Data from the original Basis Set Exchange)
!----------------------------------------------------------------------

****
H     0
S    3   1.00
     18.7311370              0.03349460
      2.8253937              0.23472695
      0.6401217              0.81375733
S    1   1.00
      0.1612778              1.00000000
P    1   1.00
      1.5000000              1.0000000
P    1   1.00
      0.3750000              1.0000000
****
C     0
S    6   1.00
   3047.5249000              0.0018347
    457.3695100              0.0140373
    103.9486900              0.0688426
     29.2101550              0.2321844
      9.2866630              0.4679413
      3.1639270              0.3623120
SP   3   1.00
      7.8682724             -0.1193324              0.0689991
      1.8812885             -0.1608542              0.3164240
      0.5442493              1.1434564              0.7443083
SP   1   1.00
      0.1687144              1.0000000              1.0000000
D    1   1.00
      1.2520000              1.0000000
D    1   1.00
      0.3130000              1.0000000
F    1   1.00
      0.8000000              1.0000000
****
}

set {
opt_type min
reference rhf
freeze_core true
e_convergence 10
d_convergence 10
ensure_bt_convergence true
dft_spherical_points 590
dft_radial_points 99
}

e = energy('b3lyp')

print_out('Grab this energy {0}'.format(e))
--------------------------------------------------------------------------

    Molecular point group: c1

    Geometry (in Bohr), charge = 0, multiplicity = 1:

       Center              X                  Y                   Z               Mass
    ------------   -----------------  -----------------  -----------------  -----------------
         C            0.000002141470     0.001549933061    -0.003537385112    12.000000000000
         C            0.000385269670    -0.000402959739    -2.479776165312    12.000000000000
         H           -1.244248536230    -1.242391385939    -3.534731632412     1.007825032230
         H            1.243631982670     1.237980425461    -3.533752951512     1.007825032230
         C           -0.000387267430    -0.000406204039     2.483799715288    12.000000000000
         H            1.244048125870    -1.242191038339     3.531838103888     1.007825032230
         H           -1.243433283430     1.237781785861     3.530857798288     1.007825032230

  Charge       = 0
  Multiplicity = 1
  Basis Set: ANONYMOUSE85018A4
    Blend: 6-31G_2DFP_
  Basis Set: (ANONYMOUSE85018A4 AUX)
    Blend: DEF2-UNIVERSAL-JKFIT

    Orbital Energies [Eh]
    ---------------------

    Doubly Occupied:

       1A    -10.201507     2A    -10.184760     3A    -10.184521
       4A     -0.784877     5A     -0.699875     6A     -0.519288
       7A     -0.446529     8A     -0.441082     9A     -0.440825
      10A     -0.264180    11A     -0.262784

  @DF-RKS Final Energy:  -116.66709888511365

   => Energetics <=

    Nuclear Repulsion Energy =             59.0065873419351590
    One-Electron Energy =                -272.1738497478921204
    Two-Electron Energy =                 110.8316414846151616
    DFT Exchange-Correlation Energy =     -14.3314779637718441
    Empirical Dispersion Energy =           0.0000000000000000
    VV10 Nonlocal Energy =                  0.0000000000000000
    Total Energy =                       -116.6670988851136457

  Dipole Moment: [D]
     X:     0.0000      Y:    -0.0009      Z:    -0.0085     Total:     0.0086

*** Psi4 exiting successfully. Buy a developer a beer!
