                               Psi4 1.4a2.dev629

  ==> Input File <==

--------------------------------------------------------------------------
import os
memory 14 GB

molecule {
 X   -1.4178360254   -1.4105910946   -0.0000000000
 C   -0.0093042169   -0.0000154052    0.0000000033
 X    1.4106256074   -1.4178015126    0.0000000000
 C   -0.0007501488   -0.0028534386   -2.4757287822
 H   -1.2357779119   -1.2462995138   -3.5320451366
 H    1.2447890563    1.2424799743   -3.5155072397
 C   -0.0007561121    0.0028385041    2.4757287912
 H    1.2488935458   -1.2383768255    3.5154992943
 H   -1.2398837944    1.2421921919    3.5320530697
units bohr
}

basis {

assign 6-31g_2dfp_

[ 6-31g_2dfp_ ]
spherical

!----------------------------------------------------------------------
! Basis Set Exchange
! Version v0.8.13
! https://www.basissetexchange.org
!----------------------------------------------------------------------
!   Basis set: 6-31G(2df,p)
! Description: 6-31G(2df,p)
!        Role: orbital
!     Version: 0  (Data from the original Basis Set Exchange)
!----------------------------------------------------------------------

****
H     0
S    3   1.00
     18.7311370              0.03349460
      2.8253937              0.23472695
      0.6401217              0.81375733
S    1   1.00
      0.1612778              1.00000000
P    1   1.00
      1.5000000              1.0000000
P    1   1.00
      0.3750000              1.0000000
****
C     0
S    6   1.00
   3047.5249000              0.0018347
    457.3695100              0.0140373
    103.9486900              0.0688426
     29.2101550              0.2321844
      9.2866630              0.4679413
      3.1639270              0.3623120
SP   3   1.00
      7.8682724             -0.1193324              0.0689991
      1.8812885             -0.1608542              0.3164240
      0.5442493              1.1434564              0.7443083
SP   1   1.00
      0.1687144              1.0000000              1.0000000
D    1   1.00
      1.2520000              1.0000000
D    1   1.00
      0.3130000              1.0000000
F    1   1.00
      0.8000000              1.0000000
****
}

set {
opt_type min
reference rhf
freeze_core true
e_convergence 10
d_convergence 10
ensure_bt_convergence true
dft_spherical_points 590
dft_radial_points 99
}

e = energy('b3lyp')

print_out('Grab this energy {0}'.format(e))
--------------------------------------------------------------------------

    Molecular point group: c1

    Geometry (in Bohr), charge = 0, multiplicity = 1:

       Center              X                  Y                   Z               Mass
    ------------   -----------------  -----------------  -----------------  -----------------
         C           -0.006517302077    -0.000006205345    -0.000000000077    12.000000000000
         C            0.002036766023    -0.002844238745    -2.475728785577    12.000000000000
         H           -1.232990997077    -1.246290313945    -3.532045139977     1.007825032230
         H            1.247575971123     1.242489174155    -3.515507243077     1.007825032230
         C            0.002030802723     0.002847703955     2.475728787823    12.000000000000
         H            1.251680460623    -1.238367625645     3.515499290923     1.007825032230
         H           -1.237096879577     1.242201391755     3.532053066323     1.007825032230

  Charge       = 0
  Multiplicity = 1
  Basis Set: ANONYMOUSE686C5F9
    Blend: 6-31G_2DFP_
  Basis Set: (ANONYMOUSE686C5F9 AUX)
    Blend: DEF2-UNIVERSAL-JKFIT

    Orbital Energies [Eh]
    ---------------------

    Doubly Occupied:

       1A    -10.200429     2A    -10.183852     3A    -10.183824
       4A     -0.785759     5A     -0.700382     6A     -0.518944
       7A     -0.446668     8A     -0.441479     9A     -0.441478
      10A     -0.263756    11A     -0.263754

  @DF-RKS Final Energy:  -116.66724769072137

   => Energetics <=

    Nuclear Repulsion Energy =             59.1228346836746042
    One-Electron Energy =                -272.4035293391682444
    Two-Electron Energy =                 110.9491515750275283
    DFT Exchange-Correlation Energy =     -14.3357046102552488
    Empirical Dispersion Energy =           0.0000000000000000
    VV10 Nonlocal Energy =                  0.0000000000000000
    Total Energy =                       -116.6672476907213678

  Dipole Moment: [D]
     X:     0.0050      Y:     0.0000      Z:    -0.0000     Total:     0.0050

*** Psi4 exiting successfully. Buy a developer a beer!
