                               Psi4 1.4a2.dev629

  ==> Input File <==

--------------------------------------------------------------------------
import os
memory 14 GB

molecule {
 X   -1.4142306086   -1.4141965114    0.0000000000
 C    0.0007301448   -0.0000045116    0.0060729367
 X    1.4141982659   -1.4142288541   -0.0000000000
 C   -0.0012410415    0.0012433611   -2.4800375627
 H   -1.2422436837   -1.2431468081   -3.5351988364
 H    1.2431336932    1.2422693658   -3.5351797445
 C   -0.0012369259   -0.0012422407    2.4835377326
 H    1.2416816428   -1.2407795956    3.5303975115
 H   -1.2407914870    1.2416586746    3.5304079629
units bohr
}

basis {

assign 6-31g_2dfp_

[ 6-31g_2dfp_ ]
spherical

!----------------------------------------------------------------------
! Basis Set Exchange
! Version v0.8.13
! https://www.basissetexchange.org
!----------------------------------------------------------------------
!   Basis set: 6-31G(2df,p)
! Description: 6-31G(2df,p)
!        Role: orbital
!     Version: 0  (Data from the original Basis Set Exchange)
!----------------------------------------------------------------------

****
H     0
S    3   1.00
     18.7311370              0.03349460
      2.8253937              0.23472695
      0.6401217              0.81375733
S    1   1.00
      0.1612778              1.00000000
P    1   1.00
      1.5000000              1.0000000
P    1   1.00
      0.3750000              1.0000000
****
C     0
S    6   1.00
   3047.5249000              0.0018347
    457.3695100              0.0140373
    103.9486900              0.0688426
     29.2101550              0.2321844
      9.2866630              0.4679413
      3.1639270              0.3623120
SP   3   1.00
      7.8682724             -0.1193324              0.0689991
      1.8812885             -0.1608542              0.3164240
      0.5442493              1.1434564              0.7443083
SP   1   1.00
      0.1687144              1.0000000              1.0000000
D    1   1.00
      1.2520000              1.0000000
D    1   1.00
      0.3130000              1.0000000
F    1   1.00
      0.8000000              1.0000000
****
}

set {
opt_type min
reference rhf
freeze_core true
e_convergence 10
d_convergence 10
ensure_bt_convergence true
dft_spherical_points 590
dft_radial_points 99
}

e = energy('b3lyp')

print_out('Grab this energy {0}'.format(e))
--------------------------------------------------------------------------

    Molecular point group: c1

    Geometry (in Bohr), charge = 0, multiplicity = 1:

       Center              X                  Y                   Z               Mass
    ------------   -----------------  -----------------  -----------------  -----------------
         C            0.001209264289    -0.000003536241     0.003444262076    12.000000000000
         C           -0.000761922011     0.001244336459    -2.482666237324    12.000000000000
         H           -1.241764564211    -1.243145832741    -3.537827511024     1.007825032230
         H            1.243612812689     1.242270341159    -3.537808419124     1.007825032230
         C           -0.000757806411    -0.001241265341     2.480909057976    12.000000000000
         H            1.242160762289    -1.240778620241     3.527768836876     1.007825032230
         H           -1.240312367511     1.241659649959     3.527779288276     1.007825032230

  Charge       = 0
  Multiplicity = 1
  Basis Set: ANONYMOUSEBCE391E
    Blend: 6-31G_2DFP_
  Basis Set: (ANONYMOUSEBCE391E AUX)
    Blend: DEF2-UNIVERSAL-JKFIT

    Orbital Energies [Eh]
    ---------------------

    Doubly Occupied:

       1A    -10.201510     2A    -10.185103     3A    -10.184179
       4A     -0.784881     5A     -0.699870     6A     -0.519288
       7A     -0.446529     8A     -0.441799     9A     -0.440111
      10A     -0.264018    11A     -0.262946

  @DF-RKS Final Energy:  -116.66710138686140

   => Energetics <=

    Nuclear Repulsion Energy =             59.0065627247041249
    One-Electron Energy =                -272.1737972466589781
    Two-Electron Energy =                 110.8316072912809034
    DFT Exchange-Correlation Energy =     -14.3314741561874399
    Empirical Dispersion Energy =           0.0000000000000000
    VV10 Nonlocal Energy =                  0.0000000000000000
    Total Energy =                       -116.6671013868614040

  Dipole Moment: [D]
     X:     0.0023      Y:    -0.0000      Z:     0.0074     Total:     0.0078

*** Psi4 exiting successfully. Buy a developer a beer!
