                               Psi4 1.4a2.dev629

  ==> Input File <==

--------------------------------------------------------------------------
import os
memory 14 GB

molecule {
 X   -1.4146892333   -1.4137378867    0.0000000000
 C   -0.0000017904   -0.0056651069   -0.0060729392
 X    1.4146936162   -1.4137335038    0.0000000000
 C    0.0002125135   -0.0007094045   -2.4835338594
 H   -1.2426380030   -1.2377395697   -3.5286388044
 H    1.2437305017    1.2407989231   -3.5321601629
 C   -0.0002200416   -0.0007045632    2.4800336965
 H    1.2441085187   -1.2392102892    3.5334139215
 H   -1.2451960818    1.2422742810    3.5369581480
units bohr
}

basis {

assign 6-31g_2dfp_

[ 6-31g_2dfp_ ]
spherical

!----------------------------------------------------------------------
! Basis Set Exchange
! Version v0.8.13
! https://www.basissetexchange.org
!----------------------------------------------------------------------
!   Basis set: 6-31G(2df,p)
! Description: 6-31G(2df,p)
!        Role: orbital
!     Version: 0  (Data from the original Basis Set Exchange)
!----------------------------------------------------------------------

****
H     0
S    3   1.00
     18.7311370              0.03349460
      2.8253937              0.23472695
      0.6401217              0.81375733
S    1   1.00
      0.1612778              1.00000000
P    1   1.00
      1.5000000              1.0000000
P    1   1.00
      0.3750000              1.0000000
****
C     0
S    6   1.00
   3047.5249000              0.0018347
    457.3695100              0.0140373
    103.9486900              0.0688426
     29.2101550              0.2321844
      9.2866630              0.4679413
      3.1639270              0.3623120
SP   3   1.00
      7.8682724             -0.1193324              0.0689991
      1.8812885             -0.1608542              0.3164240
      0.5442493              1.1434564              0.7443083
SP   1   1.00
      0.1687144              1.0000000              1.0000000
D    1   1.00
      1.2520000              1.0000000
D    1   1.00
      0.3130000              1.0000000
F    1   1.00
      0.8000000              1.0000000
****
}

set {
opt_type min
reference rhf
freeze_core true
e_convergence 10
d_convergence 10
ensure_bt_convergence true
dft_spherical_points 590
dft_radial_points 99
}

e = energy('b3lyp')

print_out('Grab this energy {0}'.format(e))
--------------------------------------------------------------------------

    Molecular point group: c1

    Geometry (in Bohr), charge = 0, multiplicity = 1:

       Center              X                  Y                   Z               Mass
    ------------   -----------------  -----------------  -----------------  -----------------
         C            0.000000878706    -0.003697205923    -0.003444265816    12.000000000000
         C            0.000215182606     0.001258496477    -2.480905186016    12.000000000000
         H           -1.242635333894    -1.235771668723    -3.526010131016     1.007825032230
         H            1.243733170806     1.242766824077    -3.529531489516     1.007825032230
         C           -0.000217372494     0.001263337777     2.482662369884    12.000000000000
         H            1.244111187806    -1.237242388223     3.536042594884     1.007825032230
         H           -1.245193412694     1.244242181977     3.539586821384     1.007825032230

  Charge       = 0
  Multiplicity = 1
  Basis Set: ANONYMOUSA04CD024
    Blend: 6-31G_2DFP_
  Basis Set: (ANONYMOUSA04CD024 AUX)
    Blend: DEF2-UNIVERSAL-JKFIT

    Orbital Energies [Eh]
    ---------------------

    Doubly Occupied:

       1A    -10.201509     2A    -10.185103     3A    -10.184179
       4A     -0.784881     5A     -0.699870     6A     -0.519288
       7A     -0.446528     8A     -0.441801     9A     -0.440109
      10A     -0.264045    11A     -0.262918

  @DF-RKS Final Energy:  -116.66709502349266

   => Energetics <=

    Nuclear Repulsion Energy =             59.0065992017897756
    One-Electron Energy =                -272.1738598424201996
    Two-Electron Energy =                 110.8316416530027766
    DFT Exchange-Correlation Energy =     -14.3314760358650215
    Empirical Dispersion Energy =           0.0000000000000000
    VV10 Nonlocal Energy =                  0.0000000000000000
    Total Energy =                       -116.6670950234926636

  Dipole Moment: [D]
     X:     0.0000      Y:     0.0023      Z:    -0.0074     Total:     0.0078

*** Psi4 exiting successfully. Buy a developer a beer!
