                               Psi4 1.4a2.dev629

  ==> Input File <==

--------------------------------------------------------------------------
import os
memory 14 GB

molecule {
 X   -1.4108247740   -1.4176023460    0.0000000000
 C    0.0026442498    0.0000046813   -0.0000000002
 X    1.4175966416   -1.4108304784    0.0000000000
 C   -0.0010753385   -0.0010931970   -2.4853639937
 H   -1.2455089779   -1.2407611849   -3.5352861538
 H    1.2418787638    1.2389189027   -3.5278678977
 C   -0.0010761471    0.0010963190    2.4853639949
 H    1.2380211248   -1.2427754637    3.5278611106
 H   -1.2416555425    1.2446156471    3.5352929399
units bohr
}

basis {

assign 6-31g_2dfp_

[ 6-31g_2dfp_ ]
spherical

!----------------------------------------------------------------------
! Basis Set Exchange
! Version v0.8.13
! https://www.basissetexchange.org
!----------------------------------------------------------------------
!   Basis set: 6-31G(2df,p)
! Description: 6-31G(2df,p)
!        Role: orbital
!     Version: 0  (Data from the original Basis Set Exchange)
!----------------------------------------------------------------------

****
H     0
S    3   1.00
     18.7311370              0.03349460
      2.8253937              0.23472695
      0.6401217              0.81375733
S    1   1.00
      0.1612778              1.00000000
P    1   1.00
      1.5000000              1.0000000
P    1   1.00
      0.3750000              1.0000000
****
C     0
S    6   1.00
   3047.5249000              0.0018347
    457.3695100              0.0140373
    103.9486900              0.0688426
     29.2101550              0.2321844
      9.2866630              0.4679413
      3.1639270              0.3623120
SP   3   1.00
      7.8682724             -0.1193324              0.0689991
      1.8812885             -0.1608542              0.3164240
      0.5442493              1.1434564              0.7443083
SP   1   1.00
      0.1687144              1.0000000              1.0000000
D    1   1.00
      1.2520000              1.0000000
D    1   1.00
      0.3130000              1.0000000
F    1   1.00
      0.8000000              1.0000000
****
}

set {
opt_type min
reference rhf
freeze_core true
e_convergence 10
d_convergence 10
ensure_bt_convergence true
dft_spherical_points 590
dft_radial_points 99
}

e = energy('b3lyp')

print_out('Grab this energy {0}'.format(e))
--------------------------------------------------------------------------

    Molecular point group: c1

    Geometry (in Bohr), charge = 0, multiplicity = 1:

       Center              X                  Y                   Z               Mass
    ------------   -----------------  -----------------  -----------------  -----------------
         C            0.002679429956     0.000002394980    -0.000000000475    12.000000000000
         C           -0.001040158344    -0.001095483320    -2.485363993975    12.000000000000
         H           -1.245473797744    -1.240763471220    -3.535286154075     1.007825032230
         H            1.241913943956     1.238916616380    -3.527867897975     1.007825032230
         C           -0.001040966944     0.001094032680     2.485363994625    12.000000000000
         H            1.238056304956    -1.242777750020     3.527861110325     1.007825032230
         H           -1.241620362344     1.244613360780     3.535292939625     1.007825032230

  Charge       = 0
  Multiplicity = 1
  Basis Set: ANONYMOUSDC640DCF
    Blend: 6-31G_2DFP_
  Basis Set: (ANONYMOUSDC640DCF AUX)
    Blend: DEF2-UNIVERSAL-JKFIT

    Orbital Energies [Eh]
    ---------------------

    Doubly Occupied:

       1A    -10.202010     2A    -10.184705     3A    -10.184673
       4A     -0.784494     5A     -0.699856     6A     -0.519345
       7A     -0.446090     8A     -0.441387     9A     -0.441386
      10A     -0.263314    11A     -0.263313

  @DF-RKS Final Energy:  -116.66697013528201

   => Energetics <=

    Nuclear Repulsion Energy =             58.9705051415577799
    One-Electron Energy =                -272.1009794523495771
    Two-Electron Energy =                 110.7946149462709116
    DFT Exchange-Correlation Energy =     -14.3311107707611392
    Empirical Dispersion Energy =           0.0000000000000000
    VV10 Nonlocal Energy =                  0.0000000000000000
    Total Energy =                       -116.6669701352820141

  Dipole Moment: [D]
     X:    -0.0015      Y:    -0.0000      Z:     0.0000     Total:     0.0015

*** Psi4 exiting successfully. Buy a developer a beer!
