                               Psi4 1.4a2.dev629

  ==> Input File <==

--------------------------------------------------------------------------
import os
memory 14 GB

molecule {
 X   -1.4127890589   -1.4156380611    0.0000000000
 C   -0.0053389286   -0.0019514285   -0.0000009573
 X    1.4160246240   -1.4124024960    0.0000000000
 C    0.0009712768    0.0017050880   -2.4817789814
 H   -1.2424078467   -1.2413517214   -3.5319699077
 H    1.2430426768    1.2410639104   -3.5335984642
 C   -0.0037154392    0.0022456223    2.4817837027
 H    1.2429909994   -1.2441005240    3.5340025625
 H   -1.2387783037    1.2420024902    3.5315620453
units bohr
}

basis {

assign 6-31g_2dfp_

[ 6-31g_2dfp_ ]
spherical

!----------------------------------------------------------------------
! Basis Set Exchange
! Version v0.8.13
! https://www.basissetexchange.org
!----------------------------------------------------------------------
!   Basis set: 6-31G(2df,p)
! Description: 6-31G(2df,p)
!        Role: orbital
!     Version: 0  (Data from the original Basis Set Exchange)
!----------------------------------------------------------------------

****
H     0
S    3   1.00
     18.7311370              0.03349460
      2.8253937              0.23472695
      0.6401217              0.81375733
S    1   1.00
      0.1612778              1.00000000
P    1   1.00
      1.5000000              1.0000000
P    1   1.00
      0.3750000              1.0000000
****
C     0
S    6   1.00
   3047.5249000              0.0018347
    457.3695100              0.0140373
    103.9486900              0.0688426
     29.2101550              0.2321844
      9.2866630              0.4679413
      3.1639270              0.3623120
SP   3   1.00
      7.8682724             -0.1193324              0.0689991
      1.8812885             -0.1608542              0.3164240
      0.5442493              1.1434564              0.7443083
SP   1   1.00
      0.1687144              1.0000000              1.0000000
D    1   1.00
      1.2520000              1.0000000
D    1   1.00
      0.3130000              1.0000000
F    1   1.00
      0.8000000              1.0000000
****
}

set {
opt_type min
reference rhf
freeze_core true
e_convergence 10
d_convergence 10
ensure_bt_convergence true
dft_spherical_points 590
dft_radial_points 99
}

e = energy('b3lyp')

print_out('Grab this energy {0}'.format(e))
--------------------------------------------------------------------------

    Molecular point group: c1

    Geometry (in Bohr), charge = 0, multiplicity = 1:

       Center              X                  Y                   Z               Mass
    ------------   -----------------  -----------------  -----------------  -----------------
         C           -0.003037938278    -0.002490678223    -0.000001990852    12.000000000000
         C            0.003272267122     0.001165838277    -2.481780014952    12.000000000000
         H           -1.240106856378    -1.241890971123    -3.531970941252     1.007825032230
         H            1.245343667122     1.240524660677    -3.533599497752     1.007825032230
         C           -0.001414448878     0.001706372577     2.481782669148    12.000000000000
         H            1.245291989722    -1.244639773723     3.534001528948     1.007825032230
         H           -1.236477313378     1.241463240477     3.531561011748     1.007825032230

  Charge       = 0
  Multiplicity = 1
  Basis Set: ANONYMOUSE097BB1D
    Blend: 6-31G_2DFP_
  Basis Set: (ANONYMOUSE097BB1D AUX)
    Blend: DEF2-UNIVERSAL-JKFIT

    Orbital Energies [Eh]
    ---------------------

    Doubly Occupied:

       1A    -10.201510     2A    -10.184657     3A    -10.184627
       4A     -0.784871     5A     -0.699880     6A     -0.519295
       7A     -0.446588     8A     -0.440954     9A     -0.440892
      10A     -0.263495    11A     -0.263467

  @DF-RKS Final Energy:  -116.66710645684120

   => Energetics <=

    Nuclear Repulsion Energy =             59.0065132081007562
    One-Electron Energy =                -272.1737096777659985
    Two-Electron Energy =                 110.8315617572749971
    DFT Exchange-Correlation Energy =     -14.3314717444509441
    Empirical Dispersion Energy =           0.0000000000000000
    VV10 Nonlocal Energy =                  0.0000000000000000
    Total Energy =                       -116.6671064568411964

  Dipole Moment: [D]
     X:     0.0019      Y:     0.0027      Z:    -0.0000     Total:     0.0033

*** Psi4 exiting successfully. Buy a developer a beer!
