                               Psi4 1.4a2.dev629

  ==> Input File <==

--------------------------------------------------------------------------
import os
memory 14 GB

molecule {
 X   -1.4072403968   -1.4211867232   -0.0000000000
 C    0.0000010843   -0.0083156247    0.0060729734
 X    1.4072238508   -1.4212032692    0.0000000000
 C   -0.0026092849    0.0003041920   -2.4800223069
 H   -1.2438736766   -1.2378210218   -3.5427190825
 H    1.2403978592    1.2486575339   -3.5276054063
 C    0.0026074071    0.0003184965    2.4835224431
 H    1.2424211841   -1.2363496267    3.5379427207
 H   -1.2389280272    1.2471689231    3.5228086586
units bohr
}

basis {

assign 6-31g_2dfp_

[ 6-31g_2dfp_ ]
spherical

!----------------------------------------------------------------------
! Basis Set Exchange
! Version v0.8.13
! https://www.basissetexchange.org
!----------------------------------------------------------------------
!   Basis set: 6-31G(2df,p)
! Description: 6-31G(2df,p)
!        Role: orbital
!     Version: 0  (Data from the original Basis Set Exchange)
!----------------------------------------------------------------------

****
H     0
S    3   1.00
     18.7311370              0.03349460
      2.8253937              0.23472695
      0.6401217              0.81375733
S    1   1.00
      0.1612778              1.00000000
P    1   1.00
      1.5000000              1.0000000
P    1   1.00
      0.3750000              1.0000000
****
C     0
S    6   1.00
   3047.5249000              0.0018347
    457.3695100              0.0140373
    103.9486900              0.0688426
     29.2101550              0.2321844
      9.2866630              0.4679413
      3.1639270              0.3623120
SP   3   1.00
      7.8682724             -0.1193324              0.0689991
      1.8812885             -0.1608542              0.3164240
      0.5442493              1.1434564              0.7443083
SP   1   1.00
      0.1687144              1.0000000              1.0000000
D    1   1.00
      1.2520000              1.0000000
D    1   1.00
      0.3130000              1.0000000
F    1   1.00
      0.8000000              1.0000000
****
}

set {
opt_type min
reference rhf
freeze_core true
e_convergence 10
d_convergence 10
ensure_bt_convergence true
dft_spherical_points 590
dft_radial_points 99
}

e = energy('b3lyp')

print_out('Grab this energy {0}'.format(e))
--------------------------------------------------------------------------

    Molecular point group: c1

    Geometry (in Bohr), charge = 0, multiplicity = 1:

       Center              X                  Y                   Z               Mass
    ------------   -----------------  -----------------  -----------------  -----------------
         C            0.000000885626    -0.006554753375     0.003444297952    12.000000000000
         C           -0.002609483574     0.002065063325    -2.482650982348    12.000000000000
         H           -1.243873875274    -1.236060150475    -3.545347757948     1.007825032230
         H            1.240397660526     1.250418405225    -3.530234081748     1.007825032230
         C            0.002607208426     0.002079367825     2.480893767652    12.000000000000
         H            1.242420985426    -1.234588755375     3.535314045252     1.007825032230
         H           -1.238928225874     1.248929794425     3.520179983152     1.007825032230

  Charge       = 0
  Multiplicity = 1
  Basis Set: ANONYMOUSBCD1A734
    Blend: 6-31G_2DFP_
  Basis Set: (ANONYMOUSBCD1A734 AUX)
    Blend: DEF2-UNIVERSAL-JKFIT

    Orbital Energies [Eh]
    ---------------------

    Doubly Occupied:

       1A    -10.201509     2A    -10.185103     3A    -10.184179
       4A     -0.784882     5A     -0.699868     6A     -0.519288
       7A     -0.446529     8A     -0.441799     9A     -0.440110
      10A     -0.264019    11A     -0.262943

  @DF-RKS Final Energy:  -116.66709857458733

   => Energetics <=

    Nuclear Repulsion Energy =             59.0066438251499434
    One-Electron Energy =                -272.1739622096379208
    Two-Electron Energy =                 110.8316946730752619
    DFT Exchange-Correlation Energy =     -14.3314748631746145
    Empirical Dispersion Energy =           0.0000000000000000
    VV10 Nonlocal Energy =                  0.0000000000000000
    Total Energy =                       -116.6670985745873281

  Dipole Moment: [D]
     X:     0.0000      Y:     0.0050      Z:     0.0074     Total:     0.0090

*** Psi4 exiting successfully. Buy a developer a beer!
