                               Psi4 1.4a2.dev629

  ==> Input File <==

--------------------------------------------------------------------------
import os
memory 14 GB

molecule {
 X   -1.4106202107   -1.4178069093    0.0000000000
 C    0.0093234992   -0.0000154654   -0.0000000033
 X    1.4178414474   -1.4105856726   -0.0000000000
 C    0.0007597324    0.0028420447   -2.4817723230
 H   -1.2485207644   -1.2379907173   -3.5244913353
 H    1.2394923421    1.2418016250   -3.5410394301
 C    0.0007537484   -0.0028570127    2.4817723140
 H    1.2353803106   -1.2459150723    3.5410315060
 H   -1.2444101050    1.2421000598    3.5244992716
units bohr
}

basis {

assign 6-31g_2dfp_

[ 6-31g_2dfp_ ]
spherical

!----------------------------------------------------------------------
! Basis Set Exchange
! Version v0.8.13
! https://www.basissetexchange.org
!----------------------------------------------------------------------
!   Basis set: 6-31G(2df,p)
! Description: 6-31G(2df,p)
!        Role: orbital
!     Version: 0  (Data from the original Basis Set Exchange)
!----------------------------------------------------------------------

****
H     0
S    3   1.00
     18.7311370              0.03349460
      2.8253937              0.23472695
      0.6401217              0.81375733
S    1   1.00
      0.1612778              1.00000000
P    1   1.00
      1.5000000              1.0000000
P    1   1.00
      0.3750000              1.0000000
****
C     0
S    6   1.00
   3047.5249000              0.0018347
    457.3695100              0.0140373
    103.9486900              0.0688426
     29.2101550              0.2321844
      9.2866630              0.4679413
      3.1639270              0.3623120
SP   3   1.00
      7.8682724             -0.1193324              0.0689991
      1.8812885             -0.1608542              0.3164240
      0.5442493              1.1434564              0.7443083
SP   1   1.00
      0.1687144              1.0000000              1.0000000
D    1   1.00
      1.2520000              1.0000000
D    1   1.00
      0.3130000              1.0000000
F    1   1.00
      0.8000000              1.0000000
****
}

set {
opt_type min
reference rhf
freeze_core true
e_convergence 10
d_convergence 10
ensure_bt_convergence true
dft_spherical_points 590
dft_radial_points 99
}

e = energy('b3lyp')

print_out('Grab this energy {0}'.format(e))
--------------------------------------------------------------------------

    Molecular point group: c1

    Geometry (in Bohr), charge = 0, multiplicity = 1:

       Center              X                  Y                   Z               Mass
    ------------   -----------------  -----------------  -----------------  -----------------
         C            0.006529579522    -0.000006239177     0.000000000080    12.000000000000
         C           -0.002034187278     0.002851270923    -2.481772319620    12.000000000000
         H           -1.251314684078    -1.237981491077    -3.524491331920     1.007825032230
         H            1.236698422422     1.241810851223    -3.541039426720     1.007825032230
         C           -0.002040171278    -0.002847786477     2.481772317380    12.000000000000
         H            1.232586390922    -1.245905846077     3.541031509380     1.007825032230
         H           -1.247204024678     1.242109286023     3.524499274980     1.007825032230

  Charge       = 0
  Multiplicity = 1
  Basis Set: ANONYMOUSB288F588
    Blend: 6-31G_2DFP_
  Basis Set: (ANONYMOUSB288F588 AUX)
    Blend: DEF2-UNIVERSAL-JKFIT

    Orbital Energies [Eh]
    ---------------------

    Doubly Occupied:

       1A    -10.201509     2A    -10.184656     3A    -10.184627
       4A     -0.784871     5A     -0.699877     6A     -0.519287
       7A     -0.446531     8A     -0.440954     9A     -0.440952
      10A     -0.263482    11A     -0.263479

  @DF-RKS Final Energy:  -116.66711918437981

   => Energetics <=

    Nuclear Repulsion Energy =             59.0065103686063566
    One-Electron Energy =                -272.1737499244597984
    Two-Electron Energy =                 110.8315875612064616
    DFT Exchange-Correlation Energy =     -14.3314671897328427
    Empirical Dispersion Energy =           0.0000000000000000
    VV10 Nonlocal Energy =                  0.0000000000000000
    Total Energy =                       -116.6671191843798141

  Dipole Moment: [D]
     X:    -0.0051      Y:     0.0000      Z:     0.0000     Total:     0.0051

*** Psi4 exiting successfully. Buy a developer a beer!
