                               Psi4 1.4a2.dev629

  ==> Input File <==

--------------------------------------------------------------------------
import os
memory 14 GB

molecule {
 X   -1.4137367119   -1.4146904081   -0.0000000000
 C    0.0000035848    0.0056890839   -0.0027798905
 X    1.4137354479   -1.4146916721   -0.0000000000
 C   -0.0002144717    0.0007126778   -2.4790144603
 H   -1.2406442159   -1.2455591071   -3.5352269934
 H    1.2395639559    1.2424829173   -3.5317348705
 C    0.0002115359    0.0007058507    2.4845530093
 H    1.2404457136   -1.2453589943    3.5338548732
 H   -1.2393648386    1.2422825318    3.5303483322
units bohr
}

basis {

assign 6-31g_2dfp_

[ 6-31g_2dfp_ ]
spherical

!----------------------------------------------------------------------
! Basis Set Exchange
! Version v0.8.13
! https://www.basissetexchange.org
!----------------------------------------------------------------------
!   Basis set: 6-31G(2df,p)
! Description: 6-31G(2df,p)
!        Role: orbital
!     Version: 0  (Data from the original Basis Set Exchange)
!----------------------------------------------------------------------

****
H     0
S    3   1.00
     18.7311370              0.03349460
      2.8253937              0.23472695
      0.6401217              0.81375733
S    1   1.00
      0.1612778              1.00000000
P    1   1.00
      1.5000000              1.0000000
P    1   1.00
      0.3750000              1.0000000
****
C     0
S    6   1.00
   3047.5249000              0.0018347
    457.3695100              0.0140373
    103.9486900              0.0688426
     29.2101550              0.2321844
      9.2866630              0.4679413
      3.1639270              0.3623120
SP   3   1.00
      7.8682724             -0.1193324              0.0689991
      1.8812885             -0.1608542              0.3164240
      0.5442493              1.1434564              0.7443083
SP   1   1.00
      0.1687144              1.0000000              1.0000000
D    1   1.00
      1.2520000              1.0000000
D    1   1.00
      0.3130000              1.0000000
F    1   1.00
      0.8000000              1.0000000
****
}

set {
opt_type min
reference rhf
freeze_core true
e_convergence 10
d_convergence 10
ensure_bt_convergence true
dft_spherical_points 590
dft_radial_points 99
}

e = energy('b3lyp')

print_out('Grab this energy {0}'.format(e))
--------------------------------------------------------------------------

    Molecular point group: c1

    Geometry (in Bohr), charge = 0, multiplicity = 1:

       Center              X                  Y                   Z               Mass
    ------------   -----------------  -----------------  -----------------  -----------------
         C            0.000003374769     0.003713366111    -0.003537389178    12.000000000000
         C           -0.000214681731    -0.001263039989    -2.479771958978    12.000000000000
         H           -1.240644425931    -1.247534824889    -3.535984492078     1.007825032230
         H            1.239563745869     1.240507199511    -3.532492369178     1.007825032230
         C            0.000211325869    -0.001269867089     2.483795510622    12.000000000000
         H            1.240445503569    -1.247334712089     3.533097374522     1.007825032230
         H           -1.239365048631     1.240306814011     3.529590833522     1.007825032230

  Charge       = 0
  Multiplicity = 1
  Basis Set: ANONYMOUS5D0D8294
    Blend: 6-31G_2DFP_
  Basis Set: (ANONYMOUS5D0D8294 AUX)
    Blend: DEF2-UNIVERSAL-JKFIT

    Orbital Energies [Eh]
    ---------------------

    Doubly Occupied:

       1A    -10.201507     2A    -10.184760     3A    -10.184521
       4A     -0.784877     5A     -0.699875     6A     -0.519288
       7A     -0.446526     8A     -0.441084     9A     -0.440824
      10A     -0.264182    11A     -0.262782

  @DF-RKS Final Energy:  -116.66709482931023

   => Energetics <=

    Nuclear Repulsion Energy =             59.0066191189530898
    One-Electron Energy =                -272.1739085453339158
    Two-Electron Energy =                 110.8316736405768381
    DFT Exchange-Correlation Energy =     -14.3314790435062438
    Empirical Dispersion Energy =           0.0000000000000000
    VV10 Nonlocal Energy =                  0.0000000000000000
    Total Energy =                       -116.6670948293102299

  Dipole Moment: [D]
     X:     0.0000      Y:    -0.0023      Z:    -0.0085     Total:     0.0088

*** Psi4 exiting successfully. Buy a developer a beer!
