                               Psi4 1.4a2.dev629

  ==> Input File <==

--------------------------------------------------------------------------
import os
memory 14 GB

molecule {
 X   -1.4160507173   -1.4123764027    0.0000000000
 C    0.0000000000    0.0099170937    0.0000000000
 X    1.4160507173   -1.4123764027   -0.0000000000
 C    0.0041754894    0.0017738338   -2.4817718676
 H   -1.2382168770   -1.2470671738   -3.5204177353
 H    1.2439625491    1.2384976359   -3.5451051630
 C   -0.0041754894    0.0017738338    2.4817718676
 H    1.2382168770   -1.2470671738    3.5204177353
 H   -1.2439625491    1.2384976359    3.5451051630
units bohr
}

basis {

assign 6-31g_2dfp_

[ 6-31g_2dfp_ ]
spherical

!----------------------------------------------------------------------
! Basis Set Exchange
! Version v0.8.13
! https://www.basissetexchange.org
!----------------------------------------------------------------------
!   Basis set: 6-31G(2df,p)
! Description: 6-31G(2df,p)
!        Role: orbital
!     Version: 0  (Data from the original Basis Set Exchange)
!----------------------------------------------------------------------

****
H     0
S    3   1.00
     18.7311370              0.03349460
      2.8253937              0.23472695
      0.6401217              0.81375733
S    1   1.00
      0.1612778              1.00000000
P    1   1.00
      1.5000000              1.0000000
P    1   1.00
      0.3750000              1.0000000
****
C     0
S    6   1.00
   3047.5249000              0.0018347
    457.3695100              0.0140373
    103.9486900              0.0688426
     29.2101550              0.2321844
      9.2866630              0.4679413
      3.1639270              0.3623120
SP   3   1.00
      7.8682724             -0.1193324              0.0689991
      1.8812885             -0.1608542              0.3164240
      0.5442493              1.1434564              0.7443083
SP   1   1.00
      0.1687144              1.0000000              1.0000000
D    1   1.00
      1.2520000              1.0000000
D    1   1.00
      0.3130000              1.0000000
F    1   1.00
      0.8000000              1.0000000
****
}

set {
opt_type min
reference rhf
freeze_core true
e_convergence 10
d_convergence 10
ensure_bt_convergence true
dft_spherical_points 590
dft_radial_points 99
}

e = energy('b3lyp')

print_out('Grab this energy {0}'.format(e))
--------------------------------------------------------------------------

    Molecular point group: c2

    Geometry (in Bohr), charge = 0, multiplicity = 1:

       Center              X                  Y                   Z               Mass
    ------------   -----------------  -----------------  -----------------  -----------------
         C            0.000000000000     0.000000000000     0.006312315801    12.000000000000
         C           -0.004175489400    -2.481771867600    -0.001830944099    12.000000000000
         H            1.238216877000    -3.520417735300    -1.250671951699     1.007825032230
         H           -1.243962549100    -3.545105163000     1.234892858001     1.007825032230
         C            0.004175489400     2.481771867600    -0.001830944099    12.000000000000
         H           -1.238216877000     3.520417735300    -1.250671951699     1.007825032230
         H            1.243962549100     3.545105163000     1.234892858001     1.007825032230

  Charge       = 0
  Multiplicity = 1
  Basis Set: ANONYMOUSD8DE0687
    Blend: 6-31G_2DFP_
  Basis Set: (ANONYMOUSD8DE0687 AUX)
    Blend: DEF2-UNIVERSAL-JKFIT

    Orbital Energies [Eh]
    ---------------------

    Doubly Occupied:

       1A    -10.201511     2A    -10.184656     1B    -10.184626
       3A     -0.784872     2B     -0.699879     4A     -0.519286
       3B     -0.446533     5A     -0.440978     4B     -0.440925
       5B     -0.263558     6A     -0.263402

  @DF-RKS Final Energy:  -116.66711244474159

   => Energetics <=

    Nuclear Repulsion Energy =             59.0065586143519312
    One-Electron Energy =                -272.1738304170003175
    Two-Electron Energy =                 110.8316270145726037
    DFT Exchange-Correlation Energy =     -14.3314676566658203
    Empirical Dispersion Energy =           0.0000000000000000
    VV10 Nonlocal Energy =                  0.0000000000000000
    Total Energy =                       -116.6671124447415906

  Dipole Moment: [D]
     X:     0.0000      Y:     0.0000      Z:    -0.0053     Total:     0.0053

*** Psi4 exiting successfully. Buy a developer a beer!
