                               Psi4 1.4a2.dev629

  ==> Input File <==

--------------------------------------------------------------------------
import os
memory 14 GB

molecule {
 X   -1.4108414987   -1.4175856213    0.0000000000
 C    0.0026379598   -0.0007253803    0.0000000696
 X    1.4176141361   -1.4108129839    0.0000000000
 C   -0.0023182377    0.0001433773   -2.4817835694
 H   -1.2452537877   -1.2414106544   -3.5364940988
 H    1.2425048395    1.2386789465   -3.5290906011
 C    0.0001664215    0.0023372030    2.4817856893
 H    1.2377684920   -1.2434268241    3.5290675872
 H   -1.2422783247    1.2443748173    3.5365149231
units bohr
}

basis {

assign 6-31g_2dfp_

[ 6-31g_2dfp_ ]
spherical

!----------------------------------------------------------------------
! Basis Set Exchange
! Version v0.8.13
! https://www.basissetexchange.org
!----------------------------------------------------------------------
!   Basis set: 6-31G(2df,p)
! Description: 6-31G(2df,p)
!        Role: orbital
!     Version: 0  (Data from the original Basis Set Exchange)
!----------------------------------------------------------------------

****
H     0
S    3   1.00
     18.7311370              0.03349460
      2.8253937              0.23472695
      0.6401217              0.81375733
S    1   1.00
      0.1612778              1.00000000
P    1   1.00
      1.5000000              1.0000000
P    1   1.00
      0.3750000              1.0000000
****
C     0
S    6   1.00
   3047.5249000              0.0018347
    457.3695100              0.0140373
    103.9486900              0.0688426
     29.2101550              0.2321844
      9.2866630              0.4679413
      3.1639270              0.3623120
SP   3   1.00
      7.8682724             -0.1193324              0.0689991
      1.8812885             -0.1608542              0.3164240
      0.5442493              1.1434564              0.7443083
SP   1   1.00
      0.1687144              1.0000000              1.0000000
D    1   1.00
      1.2520000              1.0000000
D    1   1.00
      0.3130000              1.0000000
F    1   1.00
      0.8000000              1.0000000
****
}

set {
opt_type min
reference rhf
freeze_core true
e_convergence 10
d_convergence 10
ensure_bt_convergence true
dft_spherical_points 590
dft_radial_points 99
}

e = energy('b3lyp')

print_out('Grab this energy {0}'.format(e))
--------------------------------------------------------------------------

    Molecular point group: c1

    Geometry (in Bohr), charge = 0, multiplicity = 1:

       Center              X                  Y                   Z               Mass
    ------------   -----------------  -----------------  -----------------  -----------------
         C            0.002674977281    -0.001206621919    -0.000000531611    12.000000000000
         C           -0.002281220219    -0.000337864319    -2.481784170611    12.000000000000
         H           -1.245216770219    -1.241891896019    -3.536494700011     1.007825032230
         H            1.242541856981     1.238197704881    -3.529091202311     1.007825032230
         C            0.000203438981     0.001855961381     2.481785088089    12.000000000000
         H            1.237805509481    -1.243908065719     3.529066985989     1.007825032230
         H           -1.242241307219     1.243893575681     3.536514321889     1.007825032230

  Charge       = 0
  Multiplicity = 1
  Basis Set: ANONYMOUS445A9C12
    Blend: 6-31G_2DFP_
  Basis Set: (ANONYMOUS445A9C12 AUX)
    Blend: DEF2-UNIVERSAL-JKFIT

    Orbital Energies [Eh]
    ---------------------

    Doubly Occupied:

       1A    -10.201510     2A    -10.184656     3A    -10.184626
       4A     -0.784871     5A     -0.699880     6A     -0.519287
       7A     -0.446531     8A     -0.440953     9A     -0.440951
      10A     -0.263483    11A     -0.263480

  @DF-RKS Final Energy:  -116.66711593325392

   => Energetics <=

    Nuclear Repulsion Energy =             59.0064641218917245
    One-Electron Energy =                -272.1736446865106700
    Two-Electron Energy =                 110.8315326753319283
    DFT Exchange-Correlation Energy =     -14.3314680439669058
    Empirical Dispersion Energy =           0.0000000000000000
    VV10 Nonlocal Energy =                  0.0000000000000000
    Total Energy =                       -116.6671159332539247

  Dipole Moment: [D]
     X:    -0.0015      Y:    -0.0023      Z:    -0.0000     Total:     0.0027

*** Psi4 exiting successfully. Buy a developer a beer!
