                               Psi4 1.4a2.dev629

  ==> Input File <==

--------------------------------------------------------------------------
import os
memory 14 GB

molecule {
 X   -1.4158351325   -1.4125919875    0.0000000000
 C    0.0053415167   -0.0000100485   -0.0000000015
 X    1.4125989801   -1.4158281399    0.0000000000
 C    0.0013736403    0.0002705422   -2.4757419960
 H   -1.2426471176   -1.2437209674   -3.5248167772
 H    1.2402166292    1.2428227097   -3.5227866429
 C    0.0013771636   -0.0002727573    2.4757420006
 H    1.2420615209   -1.2409775915    3.5227970006
 H   -1.2444872007    1.2418811202    3.5248064165
units bohr
}

basis {

assign 6-31g_2dfp_

[ 6-31g_2dfp_ ]
spherical

!----------------------------------------------------------------------
! Basis Set Exchange
! Version v0.8.13
! https://www.basissetexchange.org
!----------------------------------------------------------------------
!   Basis set: 6-31G(2df,p)
! Description: 6-31G(2df,p)
!        Role: orbital
!     Version: 0  (Data from the original Basis Set Exchange)
!----------------------------------------------------------------------

****
H     0
S    3   1.00
     18.7311370              0.03349460
      2.8253937              0.23472695
      0.6401217              0.81375733
S    1   1.00
      0.1612778              1.00000000
P    1   1.00
      1.5000000              1.0000000
P    1   1.00
      0.3750000              1.0000000
****
C     0
S    6   1.00
   3047.5249000              0.0018347
    457.3695100              0.0140373
    103.9486900              0.0688426
     29.2101550              0.2321844
      9.2866630              0.4679413
      3.1639270              0.3623120
SP   3   1.00
      7.8682724             -0.1193324              0.0689991
      1.8812885             -0.1608542              0.3164240
      0.5442493              1.1434564              0.7443083
SP   1   1.00
      0.1687144              1.0000000              1.0000000
D    1   1.00
      1.2520000              1.0000000
D    1   1.00
      0.3130000              1.0000000
F    1   1.00
      0.8000000              1.0000000
****
}

set {
opt_type min
reference rhf
freeze_core true
e_convergence 10
d_convergence 10
ensure_bt_convergence true
dft_spherical_points 590
dft_radial_points 99
}

e = energy('b3lyp')

print_out('Grab this energy {0}'.format(e))
--------------------------------------------------------------------------

    Molecular point group: c1

    Geometry (in Bohr), charge = 0, multiplicity = 1:

       Center              X                  Y                   Z               Mass
    ------------   -----------------  -----------------  -----------------  -----------------
         C            0.003037977244    -0.000006504999    -0.000000002354    12.000000000000
         C           -0.000929899156     0.000274085701    -2.475741996854    12.000000000000
         H           -1.244950657056    -1.243717423899    -3.524816778054     1.007825032230
         H            1.237913089744     1.242826253201    -3.522786643754     1.007825032230
         C           -0.000926375856    -0.000269213799     2.475741999746    12.000000000000
         H            1.239757981444    -1.240974047999     3.522796999746     1.007825032230
         H           -1.246790740156     1.241884663701     3.524806415646     1.007825032230

  Charge       = 0
  Multiplicity = 1
  Basis Set: ANONYMOUS9B363A2C
    Blend: 6-31G_2DFP_
  Basis Set: (ANONYMOUS9B363A2C AUX)
    Blend: DEF2-UNIVERSAL-JKFIT

    Orbital Energies [Eh]
    ---------------------

    Doubly Occupied:

       1A    -10.200429     2A    -10.183852     3A    -10.183824
       4A     -0.785759     5A     -0.700384     6A     -0.518946
       7A     -0.446669     8A     -0.441478     9A     -0.441477
      10A     -0.263756    11A     -0.263755

  @DF-RKS Final Energy:  -116.66724596207658

   => Energetics <=

    Nuclear Repulsion Energy =             59.1227747735189126
    One-Electron Energy =                -272.4033975490881403
    Two-Electron Energy =                 110.9490825919205150
    DFT Exchange-Correlation Energy =     -14.3357057784278723
    Empirical Dispersion Energy =           0.0000000000000000
    VV10 Nonlocal Energy =                  0.0000000000000000
    Total Energy =                       -116.6672459620765778

  Dipole Moment: [D]
     X:    -0.0019      Y:     0.0000      Z:    -0.0000     Total:     0.0019

*** Psi4 exiting successfully. Buy a developer a beer!
