                               Psi4 1.4a2.dev629

  ==> Input File <==

--------------------------------------------------------------------------
import os
memory 14 GB

molecule {
 X   -1.4211686680   -1.4072584520    0.0000000000
 C    0.0000010492    0.0082936014   -0.0060729731
 X    1.4211523023   -1.4072748177   -0.0000000000
 C    0.0026039160   -0.0003117519   -2.4835225466
 H   -1.2400175184   -1.2460651362   -3.5228264168
 H    1.2435006926    1.2352846288   -3.5379252894
 C   -0.0026058670   -0.0002975033    2.4800224102
 H    1.2415060525   -1.2475349919    3.5276231719
 H   -1.2449719591    1.2367373028    3.5427016438
units bohr
}

basis {

assign 6-31g_2dfp_

[ 6-31g_2dfp_ ]
spherical

!----------------------------------------------------------------------
! Basis Set Exchange
! Version v0.8.13
! https://www.basissetexchange.org
!----------------------------------------------------------------------
!   Basis set: 6-31G(2df,p)
! Description: 6-31G(2df,p)
!        Role: orbital
!     Version: 0  (Data from the original Basis Set Exchange)
!----------------------------------------------------------------------

****
H     0
S    3   1.00
     18.7311370              0.03349460
      2.8253937              0.23472695
      0.6401217              0.81375733
S    1   1.00
      0.1612778              1.00000000
P    1   1.00
      1.5000000              1.0000000
P    1   1.00
      0.3750000              1.0000000
****
C     0
S    6   1.00
   3047.5249000              0.0018347
    457.3695100              0.0140373
    103.9486900              0.0688426
     29.2101550              0.2321844
      9.2866630              0.4679413
      3.1639270              0.3623120
SP   3   1.00
      7.8682724             -0.1193324              0.0689991
      1.8812885             -0.1608542              0.3164240
      0.5442493              1.1434564              0.7443083
SP   1   1.00
      0.1687144              1.0000000              1.0000000
D    1   1.00
      1.2520000              1.0000000
D    1   1.00
      0.3130000              1.0000000
F    1   1.00
      0.8000000              1.0000000
****
}

set {
opt_type min
reference rhf
freeze_core true
e_convergence 10
d_convergence 10
ensure_bt_convergence true
dft_spherical_points 590
dft_radial_points 99
}

e = energy('b3lyp')

print_out('Grab this energy {0}'.format(e))
--------------------------------------------------------------------------

    Molecular point group: c1

    Geometry (in Bohr), charge = 0, multiplicity = 1:

       Center              X                  Y                   Z               Mass
    ------------   -----------------  -----------------  -----------------  -----------------
         C            0.000000884801     0.006533351106    -0.003444297682    12.000000000000
         C            0.002603751601    -0.002072002194    -2.480893871182    12.000000000000
         H           -1.240017682799    -1.247825386494    -3.520197741382     1.007825032230
         H            1.243500528201     1.233524378506    -3.535296613982     1.007825032230
         C           -0.002606031399    -0.002057753594     2.482651085618    12.000000000000
         H            1.241505888101    -1.249295242194     3.530251847318     1.007825032230
         H           -1.244972123499     1.234977052506     3.545330319218     1.007825032230

  Charge       = 0
  Multiplicity = 1
  Basis Set: ANONYMOUS957AE173
    Blend: 6-31G_2DFP_
  Basis Set: (ANONYMOUS957AE173 AUX)
    Blend: DEF2-UNIVERSAL-JKFIT

    Orbital Energies [Eh]
    ---------------------

    Doubly Occupied:

       1A    -10.201509     2A    -10.185103     3A    -10.184179
       4A     -0.784882     5A     -0.699868     6A     -0.519288
       7A     -0.446529     8A     -0.441799     9A     -0.440110
      10A     -0.264019    11A     -0.262943

  @DF-RKS Final Energy:  -116.66709859523584

   => Energetics <=

    Nuclear Repulsion Energy =             59.0066433260169134
    One-Electron Energy =                -272.1739611572198214
    Two-Electron Energy =                 110.8316940927390561
    DFT Exchange-Correlation Energy =     -14.3314748567719707
    Empirical Dispersion Energy =           0.0000000000000000
    VV10 Nonlocal Energy =                  0.0000000000000000
    Total Energy =                       -116.6670985952358421

  Dipole Moment: [D]
     X:     0.0000      Y:    -0.0050      Z:    -0.0074     Total:     0.0090

*** Psi4 exiting successfully. Buy a developer a beer!
