                               Psi4 1.4a2.dev629

  ==> Input File <==

--------------------------------------------------------------------------
import os
memory 14 GB

molecule {
 X   -1.4070576806   -1.4213694394   -0.0000000000
 C   -0.0019094504   -0.0083175324    0.0000071256
 X    1.4074007747   -1.4210263453    0.0000000000
 C   -0.0006144687    0.0026689535   -2.4817569587
 H   -1.2438516464   -1.2378886654   -3.5405255542
 H    1.2391555612    1.2469258913   -3.5250062397
 C    0.0046024961   -0.0020452839    2.4817793962
 H    1.2424463803   -1.2362908744    3.5401177685
 H   -1.2401719663    1.2489161761    3.5253844623
units bohr
}

basis {

assign 6-31g_2dfp_

[ 6-31g_2dfp_ ]
spherical

!----------------------------------------------------------------------
! Basis Set Exchange
! Version v0.8.13
! https://www.basissetexchange.org
!----------------------------------------------------------------------
!   Basis set: 6-31G(2df,p)
! Description: 6-31G(2df,p)
!        Role: orbital
!     Version: 0  (Data from the original Basis Set Exchange)
!----------------------------------------------------------------------

****
H     0
S    3   1.00
     18.7311370              0.03349460
      2.8253937              0.23472695
      0.6401217              0.81375733
S    1   1.00
      0.1612778              1.00000000
P    1   1.00
      1.5000000              1.0000000
P    1   1.00
      0.3750000              1.0000000
****
C     0
S    6   1.00
   3047.5249000              0.0018347
    457.3695100              0.0140373
    103.9486900              0.0688426
     29.2101550              0.2321844
      9.2866630              0.4679413
      3.1639270              0.3623120
SP   3   1.00
      7.8682724             -0.1193324              0.0689991
      1.8812885             -0.1608542              0.3164240
      0.5442493              1.1434564              0.7443083
SP   1   1.00
      0.1687144              1.0000000              1.0000000
D    1   1.00
      1.2520000              1.0000000
D    1   1.00
      0.3130000              1.0000000
F    1   1.00
      0.8000000              1.0000000
****
}

set {
opt_type min
reference rhf
freeze_core true
e_convergence 10
d_convergence 10
ensure_bt_convergence true
dft_spherical_points 590
dft_radial_points 99
}

e = energy('b3lyp')

print_out('Grab this energy {0}'.format(e))
--------------------------------------------------------------------------

    Molecular point group: c1

    Geometry (in Bohr), charge = 0, multiplicity = 1:

       Center              X                  Y                   Z               Mass
    ------------   -----------------  -----------------  -----------------  -----------------
         C           -0.002471568120    -0.006556552472    -0.000000992117    12.000000000000
         C           -0.001176586420     0.004429933428    -2.481765076417    12.000000000000
         H           -1.244413764120    -1.236127685472    -3.540533671917     1.007825032230
         H            1.238593443480     1.248686871228    -3.525014357417     1.007825032230
         C            0.004040378380    -0.000284303972     2.481771278483    12.000000000000
         H            1.241884262580    -1.234529894472     3.540109650783     1.007825032230
         H           -1.240734084020     1.250677156028     3.525376344583     1.007825032230

  Charge       = 0
  Multiplicity = 1
  Basis Set: ANONYMOUSBC771DB6
    Blend: 6-31G_2DFP_
  Basis Set: (ANONYMOUSBC771DB6 AUX)
    Blend: DEF2-UNIVERSAL-JKFIT

    Orbital Energies [Eh]
    ---------------------

    Doubly Occupied:

       1A    -10.201510     2A    -10.184657     3A    -10.184627
       4A     -0.784871     5A     -0.699878     6A     -0.519294
       7A     -0.446587     8A     -0.440933     9A     -0.440913
      10A     -0.263531    11A     -0.263430

  @DF-RKS Final Energy:  -116.66710858620540

   => Energetics <=

    Nuclear Repulsion Energy =             59.0065681529850181
    One-Electron Energy =                -272.1738325791344550
    Two-Electron Energy =                 110.8316264717851567
    DFT Exchange-Correlation Energy =     -14.3314706318411158
    Empirical Dispersion Energy =           0.0000000000000000
    VV10 Nonlocal Energy =                  0.0000000000000000
    Total Energy =                       -116.6671085862054014

  Dipole Moment: [D]
     X:     0.0027      Y:     0.0050      Z:     0.0001     Total:     0.0057

*** Psi4 exiting successfully. Buy a developer a beer!
