                               Psi4 1.4a2.dev629

  ==> Input File <==

--------------------------------------------------------------------------
import os
memory 14 GB

molecule {
 X   -1.4193099287   -1.4091171913   -0.0000000000
 C    0.0000000000   -0.0015891136    0.0000000000
 X    1.4193099287   -1.4091171913    0.0000000000
 C   -0.0015673166   -0.0020714513   -2.4809687957
 H   -1.2407948503   -1.2379903630   -3.5375160493
 H    1.2385418972    1.2357600024   -3.5279755605
 C    0.0015673166   -0.0020714513    2.4809687957
 H    1.2407948503   -1.2379903630    3.5375160493
 H   -1.2385418972    1.2357600024    3.5279755605
units bohr
}

basis {

assign 6-31g_2dfp_

[ 6-31g_2dfp_ ]
spherical

!----------------------------------------------------------------------
! Basis Set Exchange
! Version v0.8.13
! https://www.basissetexchange.org
!----------------------------------------------------------------------
!   Basis set: 6-31G(2df,p)
! Description: 6-31G(2df,p)
!        Role: orbital
!     Version: 0  (Data from the original Basis Set Exchange)
!----------------------------------------------------------------------

****
H     0
S    3   1.00
     18.7311370              0.03349460
      2.8253937              0.23472695
      0.6401217              0.81375733
S    1   1.00
      0.1612778              1.00000000
P    1   1.00
      1.5000000              1.0000000
P    1   1.00
      0.3750000              1.0000000
****
C     0
S    6   1.00
   3047.5249000              0.0018347
    457.3695100              0.0140373
    103.9486900              0.0688426
     29.2101550              0.2321844
      9.2866630              0.4679413
      3.1639270              0.3623120
SP   3   1.00
      7.8682724             -0.1193324              0.0689991
      1.8812885             -0.1608542              0.3164240
      0.5442493              1.1434564              0.7443083
SP   1   1.00
      0.1687144              1.0000000              1.0000000
D    1   1.00
      1.2520000              1.0000000
D    1   1.00
      0.3130000              1.0000000
F    1   1.00
      0.8000000              1.0000000
****
}

set {
opt_type min
reference rhf
freeze_core true
e_convergence 10
d_convergence 10
ensure_bt_convergence true
dft_spherical_points 590
dft_radial_points 99
}

e = energy('b3lyp')

print_out('Grab this energy {0}'.format(e))
--------------------------------------------------------------------------

    Molecular point group: c2

    Geometry (in Bohr), charge = 0, multiplicity = 1:

       Center              X                  Y                   Z               Mass
    ------------   -----------------  -----------------  -----------------  -----------------
         C           -0.000000000000    -0.000000000000     0.000241449501    12.000000000000
         C            2.480968795700     0.001567316600    -0.000240888199    12.000000000000
         H            3.537516049300     1.240794850300    -1.236159799899     1.007825032230
         H            3.527975560500    -1.238541897200     1.237590565501     1.007825032230
         C           -2.480968795700    -0.001567316600    -0.000240888199    12.000000000000
         H           -3.537516049300    -1.240794850300    -1.236159799899     1.007825032230
         H           -3.527975560500     1.238541897200     1.237590565501     1.007825032230

  Charge       = 0
  Multiplicity = 1
  Basis Set: ANONYMOUSC7F960BD
    Blend: 6-31G_2DFP_
  Basis Set: (ANONYMOUSC7F960BD AUX)
    Blend: DEF2-UNIVERSAL-JKFIT

    Orbital Energies [Eh]
    ---------------------

    Doubly Occupied:

       1A    -10.201434     2A    -10.184169     1B    -10.184138
       3A     -0.785074     2B     -0.700243     4A     -0.520005
       3B     -0.447107     4B     -0.441203     5A     -0.441125
       6A     -0.263670     5B     -0.263422

  @DF-RKS Final Energy:  -116.66711702191488

   => Energetics <=

    Nuclear Repulsion Energy =             59.0487618222922350
    One-Electron Energy =                -272.2534497974875762
    Two-Electron Energy =                 110.8720055846072654
    DFT Exchange-Correlation Energy =     -14.3344346313268201
    Empirical Dispersion Energy =           0.0000000000000000
    VV10 Nonlocal Energy =                  0.0000000000000000
    Total Energy =                       -116.6671170219148763

  Dipole Moment: [D]
     X:     0.0000      Y:     0.0000      Z:     0.0003     Total:     0.0003

*** Psi4 exiting successfully. Buy a developer a beer!
