                               Psi4 1.4a2.dev629

  ==> Input File <==

--------------------------------------------------------------------------
import os
memory 14 GB

molecule {
 X   -1.4157125834   -1.4127145366    0.0000000000
 C    0.0093557149   -0.0016030188   -0.0000027441
 X    1.4229435132   -1.4054836068    0.0000000000
 C   -0.0008070961    0.0007764154   -2.4817695353
 H   -1.2510730513   -1.2377064489   -3.5292503091
 H    1.2397635747    1.2392953177   -3.5362805546
 C    0.0023231754   -0.0049320396    2.4817737992
 H    1.2378777228   -1.2456202958    3.5458306078
 H   -1.2446709702    1.2395610934    3.5196987361
units bohr
}

basis {

assign 6-31g_2dfp_

[ 6-31g_2dfp_ ]
spherical

!----------------------------------------------------------------------
! Basis Set Exchange
! Version v0.8.13
! https://www.basissetexchange.org
!----------------------------------------------------------------------
!   Basis set: 6-31G(2df,p)
! Description: 6-31G(2df,p)
!        Role: orbital
!     Version: 0  (Data from the original Basis Set Exchange)
!----------------------------------------------------------------------

****
H     0
S    3   1.00
     18.7311370              0.03349460
      2.8253937              0.23472695
      0.6401217              0.81375733
S    1   1.00
      0.1612778              1.00000000
P    1   1.00
      1.5000000              1.0000000
P    1   1.00
      0.3750000              1.0000000
****
C     0
S    6   1.00
   3047.5249000              0.0018347
    457.3695100              0.0140373
    103.9486900              0.0688426
     29.2101550              0.2321844
      9.2866630              0.4679413
      3.1639270              0.3623120
SP   3   1.00
      7.8682724             -0.1193324              0.0689991
      1.8812885             -0.1608542              0.3164240
      0.5442493              1.1434564              0.7443083
SP   1   1.00
      0.1687144              1.0000000              1.0000000
D    1   1.00
      1.2520000              1.0000000
D    1   1.00
      0.3130000              1.0000000
F    1   1.00
      0.8000000              1.0000000
****
}

set {
opt_type min
reference rhf
freeze_core true
e_convergence 10
d_convergence 10
ensure_bt_convergence true
dft_spherical_points 590
dft_radial_points 99
}

e = energy('b3lyp')

print_out('Grab this energy {0}'.format(e))
--------------------------------------------------------------------------

    Molecular point group: c1

    Geometry (in Bohr), charge = 0, multiplicity = 1:

       Center              X                  Y                   Z               Mass
    ------------   -----------------  -----------------  -----------------  -----------------
         C            0.006552479641     0.000235768096    -0.000003161421    12.000000000000
         C           -0.003610331359     0.002615202296    -2.481769952621    12.000000000000
         H           -1.253876286559    -1.235867662004    -3.529250726421     1.007825032230
         H            1.236960339441     1.241134104596    -3.536280971921     1.007825032230
         C           -0.000480059859    -0.003093252704     2.481773381879    12.000000000000
         H            1.235074487541    -1.243781508904     3.545830190479     1.007825032230
         H           -1.247474205459     1.241399880296     3.519698318779     1.007825032230

  Charge       = 0
  Multiplicity = 1
  Basis Set: ANONYMOUS39446929
    Blend: 6-31G_2DFP_
  Basis Set: (ANONYMOUS39446929 AUX)
    Blend: DEF2-UNIVERSAL-JKFIT

    Orbital Energies [Eh]
    ---------------------

    Doubly Occupied:

       1A    -10.201510     2A    -10.184656     3A    -10.184626
       4A     -0.784871     5A     -0.699878     6A     -0.519287
       7A     -0.446531     8A     -0.440992     9A     -0.440912
      10A     -0.263606    11A     -0.263355

  @DF-RKS Final Energy:  -116.66711491362194

   => Energetics <=

    Nuclear Repulsion Energy =             59.0065340456646794
    One-Electron Energy =                -272.1737888490889645
    Two-Electron Energy =                 110.8316076932765668
    DFT Exchange-Correlation Energy =     -14.3314678034742400
    Empirical Dispersion Energy =           0.0000000000000000
    VV10 Nonlocal Energy =                  0.0000000000000000
    Total Energy =                       -116.6671149136219441

  Dipole Moment: [D]
     X:    -0.0051      Y:     0.0003      Z:     0.0001     Total:     0.0051

*** Psi4 exiting successfully. Buy a developer a beer!
