                               Psi4 1.4a2.dev629

  ==> Input File <==

--------------------------------------------------------------------------
import os
memory 14 GB

molecule {
 X   -1.4160000349   -1.4124270851    0.0000000000
 C    0.0072685172   -0.0000247417   -0.0000000035
 X    1.4124216447   -1.4160054753   -0.0000000000
 C   -0.0006219882   -0.0020870543   -2.4817753431
 H   -1.2415610853   -1.2425320719   -3.5336030042
 H    1.2403284640    1.2434437800   -3.5319556364
 C   -0.0006181907    0.0020828970    2.4817753100
 H    1.2423734604   -1.2413892872    3.5319812015
 H   -1.2435907873    1.2405119185    3.5335774757
units bohr
}

basis {

assign 6-31g_2dfp_

[ 6-31g_2dfp_ ]
spherical

!----------------------------------------------------------------------
! Basis Set Exchange
! Version v0.8.13
! https://www.basissetexchange.org
!----------------------------------------------------------------------
!   Basis set: 6-31G(2df,p)
! Description: 6-31G(2df,p)
!        Role: orbital
!     Version: 0  (Data from the original Basis Set Exchange)
!----------------------------------------------------------------------

****
H     0
S    3   1.00
     18.7311370              0.03349460
      2.8253937              0.23472695
      0.6401217              0.81375733
S    1   1.00
      0.1612778              1.00000000
P    1   1.00
      1.5000000              1.0000000
P    1   1.00
      0.3750000              1.0000000
****
C     0
S    6   1.00
   3047.5249000              0.0018347
    457.3695100              0.0140373
    103.9486900              0.0688426
     29.2101550              0.2321844
      9.2866630              0.4679413
      3.1639270              0.3623120
SP   3   1.00
      7.8682724             -0.1193324              0.0689991
      1.8812885             -0.1608542              0.3164240
      0.5442493              1.1434564              0.7443083
SP   1   1.00
      0.1687144              1.0000000              1.0000000
D    1   1.00
      1.2520000              1.0000000
D    1   1.00
      0.3130000              1.0000000
F    1   1.00
      0.8000000              1.0000000
****
}

set {
opt_type min
reference rhf
freeze_core true
e_convergence 10
d_convergence 10
ensure_bt_convergence true
dft_spherical_points 590
dft_radial_points 99
}

e = energy('b3lyp')

print_out('Grab this energy {0}'.format(e))
--------------------------------------------------------------------------

    Molecular point group: c1

    Geometry (in Bohr), charge = 0, multiplicity = 1:

       Center              X                  Y                   Z               Mass
    ------------   -----------------  -----------------  -----------------  -----------------
         C            0.005523109475    -0.000016943305     0.000000006550    12.000000000000
         C           -0.002367395925    -0.002079255905    -2.481775333050    12.000000000000
         H           -1.243306493025    -1.242524273505    -3.533602994150     1.007825032230
         H            1.238583056275     1.243451578395    -3.531955626350     1.007825032230
         C           -0.002363598425     0.002090695395     2.481775320050    12.000000000000
         H            1.240628052675    -1.241381488805     3.531981211550     1.007825032230
         H           -1.245336195025     1.240519716895     3.533577485750     1.007825032230

  Charge       = 0
  Multiplicity = 1
  Basis Set: ANONYMOUSFD5C05A5
    Blend: 6-31G_2DFP_
  Basis Set: (ANONYMOUSFD5C05A5 AUX)
    Blend: DEF2-UNIVERSAL-JKFIT

    Orbital Energies [Eh]
    ---------------------

    Doubly Occupied:

       1A    -10.201509     2A    -10.184656     3A    -10.184627
       4A     -0.784870     5A     -0.699878     6A     -0.519289
       7A     -0.446568     8A     -0.440951     9A     -0.440915
      10A     -0.263482    11A     -0.263479

  @DF-RKS Final Energy:  -116.66711683764602

   => Energetics <=

    Nuclear Repulsion Energy =             59.0064907420925451
    One-Electron Energy =                -272.1737063106754704
    Two-Electron Energy =                 110.8315660545994064
    DFT Exchange-Correlation Energy =     -14.3314673236625048
    Empirical Dispersion Energy =           0.0000000000000000
    VV10 Nonlocal Energy =                  0.0000000000000000
    Total Energy =                       -116.6671168376460201

  Dipole Moment: [D]
     X:    -0.0046      Y:     0.0000      Z:    -0.0000     Total:     0.0046

*** Psi4 exiting successfully. Buy a developer a beer!
