                               Psi4 1.4a2.dev629

  ==> Input File <==

--------------------------------------------------------------------------
import os
memory 14 GB

molecule {
 X   -1.4170255378   -1.4114015822    0.0000000000
 C    0.0053471028   -0.0030514315   -0.0000008161
 X    1.4137926157   -1.4146345043   -0.0000000000
 C    0.0009870595   -0.0008232640   -2.4817847259
 H   -1.2400762620   -1.2445015690   -3.5333233561
 H    1.2382564605    1.2450203572   -3.5322551915
 C    0.0017598905   -0.0013620819    2.4817847564
 H    1.2394896773   -1.2417601741    3.5312904203
 H   -1.2425310064    1.2440871298    3.5342889130
units bohr
}

basis {

assign 6-31g_2dfp_

[ 6-31g_2dfp_ ]
spherical

!----------------------------------------------------------------------
! Basis Set Exchange
! Version v0.8.13
! https://www.basissetexchange.org
!----------------------------------------------------------------------
!   Basis set: 6-31G(2df,p)
! Description: 6-31G(2df,p)
!        Role: orbital
!     Version: 0  (Data from the original Basis Set Exchange)
!----------------------------------------------------------------------

****
H     0
S    3   1.00
     18.7311370              0.03349460
      2.8253937              0.23472695
      0.6401217              0.81375733
S    1   1.00
      0.1612778              1.00000000
P    1   1.00
      1.5000000              1.0000000
P    1   1.00
      0.3750000              1.0000000
****
C     0
S    6   1.00
   3047.5249000              0.0018347
    457.3695100              0.0140373
    103.9486900              0.0688426
     29.2101550              0.2321844
      9.2866630              0.4679413
      3.1639270              0.3623120
SP   3   1.00
      7.8682724             -0.1193324              0.0689991
      1.8812885             -0.1608542              0.3164240
      0.5442493              1.1434564              0.7443083
SP   1   1.00
      0.1687144              1.0000000              1.0000000
D    1   1.00
      1.2520000              1.0000000
D    1   1.00
      0.3130000              1.0000000
F    1   1.00
      0.8000000              1.0000000
****
}

set {
opt_type min
reference rhf
freeze_core true
e_convergence 10
d_convergence 10
ensure_bt_convergence true
dft_spherical_points 590
dft_radial_points 99
}

e = energy('b3lyp')

print_out('Grab this energy {0}'.format(e))
--------------------------------------------------------------------------

    Molecular point group: c1

    Geometry (in Bohr), charge = 0, multiplicity = 1:

       Center              X                  Y                   Z               Mass
    ------------   -----------------  -----------------  -----------------  -----------------
         C            0.003043169023    -0.001553270894    -0.000000600385    12.000000000000
         C           -0.001316874277     0.000674896606    -2.481784510185    12.000000000000
         H           -1.242380195777    -1.243003408394    -3.533323140385     1.007825032230
         H            1.235952526723     1.246518517806    -3.532254975785     1.007825032230
         C           -0.000544043277     0.000136078706     2.481784972115    12.000000000000
         H            1.237185743523    -1.240262013494     3.531290636015     1.007825032230
         H           -1.244834940177     1.245585290406     3.534289128715     1.007825032230

  Charge       = 0
  Multiplicity = 1
  Basis Set: ANONYMOUS0C950074
    Blend: 6-31G_2DFP_
  Basis Set: (ANONYMOUS0C950074 AUX)
    Blend: DEF2-UNIVERSAL-JKFIT

    Orbital Energies [Eh]
    ---------------------

    Doubly Occupied:

       1A    -10.201509     2A    -10.184656     3A    -10.184627
       4A     -0.784870     5A     -0.699879     6A     -0.519289
       7A     -0.446534     8A     -0.441005     9A     -0.440898
      10A     -0.263648    11A     -0.263315

  @DF-RKS Final Energy:  -116.66711460815570

   => Energetics <=

    Nuclear Repulsion Energy =             59.0064639170235452
    One-Electron Energy =                -272.1736380083961535
    Two-Electron Energy =                 110.8315286972780314
    DFT Exchange-Correlation Energy =     -14.3314692140611282
    Empirical Dispersion Energy =           0.0000000000000000
    VV10 Nonlocal Energy =                  0.0000000000000000
    Total Energy =                       -116.6671146081556998

  Dipole Moment: [D]
     X:    -0.0019      Y:     0.0009      Z:    -0.0000     Total:     0.0022

*** Psi4 exiting successfully. Buy a developer a beer!
