                               Psi4 1.4a2.dev629

  ==> Input File <==

--------------------------------------------------------------------------
import os
memory 14 GB

molecule {
 X   -1.4180052548   -1.4104218652   -0.0000000000
 C   -0.0074018497   -0.0000099658    0.0000000012
 X    1.4104380068   -1.4179891132    0.0000000000
 C   -0.0027433214   -0.0052125571   -2.4817789134
 H   -1.2346761207   -1.2451179003   -3.5408151189
 H    1.2449090983    1.2431064809   -3.5246874223
 C   -0.0027579149    0.0051955287    2.4817789371
 H    1.2492196498   -1.2387926772    3.5246790570
 H   -1.2389822934    1.2408149493    3.5408234594
units bohr
}

basis {

assign 6-31g_2dfp_

[ 6-31g_2dfp_ ]
spherical

!----------------------------------------------------------------------
! Basis Set Exchange
! Version v0.8.13
! https://www.basissetexchange.org
!----------------------------------------------------------------------
!   Basis set: 6-31G(2df,p)
! Description: 6-31G(2df,p)
!        Role: orbital
!     Version: 0  (Data from the original Basis Set Exchange)
!----------------------------------------------------------------------

****
H     0
S    3   1.00
     18.7311370              0.03349460
      2.8253937              0.23472695
      0.6401217              0.81375733
S    1   1.00
      0.1612778              1.00000000
P    1   1.00
      1.5000000              1.0000000
P    1   1.00
      0.3750000              1.0000000
****
C     0
S    6   1.00
   3047.5249000              0.0018347
    457.3695100              0.0140373
    103.9486900              0.0688426
     29.2101550              0.2321844
      9.2866630              0.4679413
      3.1639270              0.3623120
SP   3   1.00
      7.8682724             -0.1193324              0.0689991
      1.8812885             -0.1608542              0.3164240
      0.5442493              1.1434564              0.7443083
SP   1   1.00
      0.1687144              1.0000000              1.0000000
D    1   1.00
      1.2520000              1.0000000
D    1   1.00
      0.3130000              1.0000000
F    1   1.00
      0.8000000              1.0000000
****
}

set {
opt_type min
reference rhf
freeze_core true
e_convergence 10
d_convergence 10
ensure_bt_convergence true
dft_spherical_points 590
dft_radial_points 99
}

e = energy('b3lyp')

print_out('Grab this energy {0}'.format(e))
--------------------------------------------------------------------------

    Molecular point group: c1

    Geometry (in Bohr), charge = 0, multiplicity = 1:

       Center              X                  Y                   Z               Mass
    ------------   -----------------  -----------------  -----------------  -----------------
         C           -0.004049310149    -0.000002147099    -0.000000005640    12.000000000000
         C            0.000609218151    -0.005204738399    -2.481778920240    12.000000000000
         H           -1.231323581149    -1.245110081599    -3.540815125740     1.007825032230
         H            1.248261637851     1.243114299601    -3.524687429140     1.007825032230
         C            0.000594624651     0.005203347401     2.481778930260    12.000000000000
         H            1.252572189351    -1.238784858499     3.524679050160     1.007825032230
         H           -1.235629753849     1.240822768001     3.540823452560     1.007825032230

  Charge       = 0
  Multiplicity = 1
  Basis Set: ANONYMOUS20DA8EB7
    Blend: 6-31G_2DFP_
  Basis Set: (ANONYMOUS20DA8EB7 AUX)
    Blend: DEF2-UNIVERSAL-JKFIT

    Orbital Energies [Eh]
    ---------------------

    Doubly Occupied:

       1A    -10.201512     2A    -10.184656     3A    -10.184626
       4A     -0.784871     5A     -0.699879     6A     -0.519296
       7A     -0.446602     8A     -0.440947     9A     -0.440884
      10A     -0.263481    11A     -0.263479

  @DF-RKS Final Energy:  -116.66711022998682

   => Energetics <=

    Nuclear Repulsion Energy =             59.0065359570663688
    One-Electron Energy =                -272.1737654230458929
    Two-Electron Energy =                 110.8315880615054141
    DFT Exchange-Correlation Energy =     -14.3314688255127134
    Empirical Dispersion Energy =           0.0000000000000000
    VV10 Nonlocal Energy =                  0.0000000000000000
    Total Energy =                       -116.6671102299868181

  Dipole Moment: [D]
     X:     0.0024      Y:     0.0000      Z:    -0.0000     Total:     0.0024

*** Psi4 exiting successfully. Buy a developer a beer!
