                               Psi4 1.4a2.dev629

  ==> Input File <==

--------------------------------------------------------------------------
import os
memory 14 GB

molecule {
 X   -1.4126012660   -1.4158258540    0.0000000000
 C   -0.0053470291   -0.0000140019   -0.0027798855
 X    1.4158336657   -1.4125934543    0.0000000000
 C   -0.0013787503   -0.0002695265   -2.4790162725
 H   -1.2417709370   -1.2406903814   -3.5324762513
 H    1.2442004392    1.2415949588   -3.5344874971
 C   -0.0013689212    0.0002696709    2.4845548173
 H    1.2421622095   -1.2432327548    3.5331226764
 H   -1.2397294108    1.2423342233    3.5310824126
units bohr
}

basis {

assign 6-31g_2dfp_

[ 6-31g_2dfp_ ]
spherical

!----------------------------------------------------------------------
! Basis Set Exchange
! Version v0.8.13
! https://www.basissetexchange.org
!----------------------------------------------------------------------
!   Basis set: 6-31G(2df,p)
! Description: 6-31G(2df,p)
!        Role: orbital
!     Version: 0  (Data from the original Basis Set Exchange)
!----------------------------------------------------------------------

****
H     0
S    3   1.00
     18.7311370              0.03349460
      2.8253937              0.23472695
      0.6401217              0.81375733
S    1   1.00
      0.1612778              1.00000000
P    1   1.00
      1.5000000              1.0000000
P    1   1.00
      0.3750000              1.0000000
****
C     0
S    6   1.00
   3047.5249000              0.0018347
    457.3695100              0.0140373
    103.9486900              0.0688426
     29.2101550              0.2321844
      9.2866630              0.4679413
      3.1639270              0.3623120
SP   3   1.00
      7.8682724             -0.1193324              0.0689991
      1.8812885             -0.1608542              0.3164240
      0.5442493              1.1434564              0.7443083
SP   1   1.00
      0.1687144              1.0000000              1.0000000
D    1   1.00
      1.2520000              1.0000000
D    1   1.00
      0.3130000              1.0000000
F    1   1.00
      0.8000000              1.0000000
****
}

set {
opt_type min
reference rhf
freeze_core true
e_convergence 10
d_convergence 10
ensure_bt_convergence true
dft_spherical_points 590
dft_radial_points 99
}

e = energy('b3lyp')

print_out('Grab this energy {0}'.format(e))
--------------------------------------------------------------------------

    Molecular point group: c1

    Geometry (in Bohr), charge = 0, multiplicity = 1:

       Center              X                  Y                   Z               Mass
    ------------   -----------------  -----------------  -----------------  -----------------
         C           -0.003042930599    -0.000010000112    -0.003537384395    12.000000000000
         C            0.000925348201    -0.000265524712    -2.479773771395    12.000000000000
         H           -1.239466838499    -1.240686379612    -3.533233750195     1.007825032230
         H            1.246504537701     1.241598960588    -3.535244995995     1.007825032230
         C            0.000935177301     0.000273672688     2.483797318405    12.000000000000
         H            1.244466308001    -1.243228753012     3.532365177505     1.007825032230
         H           -1.237425312299     1.242338225088     3.530324913705     1.007825032230

  Charge       = 0
  Multiplicity = 1
  Basis Set: ANONYMOUS7DF29B32
    Blend: 6-31G_2DFP_
  Basis Set: (ANONYMOUS7DF29B32 AUX)
    Blend: DEF2-UNIVERSAL-JKFIT

    Orbital Energies [Eh]
    ---------------------

    Doubly Occupied:

       1A    -10.201507     2A    -10.184760     3A    -10.184521
       4A     -0.784877     5A     -0.699875     6A     -0.519288
       7A     -0.446528     8A     -0.441071     9A     -0.440836
      10A     -0.264160    11A     -0.262804

  @DF-RKS Final Energy:  -116.66709613015234

   => Energetics <=

    Nuclear Repulsion Energy =             59.0066091493994307
    One-Electron Energy =                -272.1738882380684004
    Two-Electron Energy =                 110.8316619897519502
    DFT Exchange-Correlation Energy =     -14.3314790312353146
    Empirical Dispersion Energy =           0.0000000000000000
    VV10 Nonlocal Energy =                  0.0000000000000000
    Total Energy =                       -116.6670961301523448

  Dipole Moment: [D]
     X:     0.0019      Y:    -0.0000      Z:    -0.0085     Total:     0.0087

*** Psi4 exiting successfully. Buy a developer a beer!
