                               Psi4 1.4a2.dev629

  ==> Input File <==

--------------------------------------------------------------------------
import os
memory 14 GB

molecule {
 X   -1.4121228309   -1.4163042891   -0.0000000000
 C   -0.0053487666    0.0056790448   -0.0000013218
 X    1.4153562926   -1.4130708274   -0.0000000000
 C   -0.0015877855    0.0004374329   -2.4817816767
 H   -1.2402560885   -1.2440880151   -3.5335258420
 H    1.2416037830    1.2419173024   -3.5320436615
 C   -0.0011582397    0.0009788666    2.4817794295
 H    1.2408427882   -1.2468289172    3.5355551485
 H   -1.2373291527    1.2428522822    3.5300179241
units bohr
}

basis {

assign 6-31g_2dfp_

[ 6-31g_2dfp_ ]
spherical

!----------------------------------------------------------------------
! Basis Set Exchange
! Version v0.8.13
! https://www.basissetexchange.org
!----------------------------------------------------------------------
!   Basis set: 6-31G(2df,p)
! Description: 6-31G(2df,p)
!        Role: orbital
!     Version: 0  (Data from the original Basis Set Exchange)
!----------------------------------------------------------------------

****
H     0
S    3   1.00
     18.7311370              0.03349460
      2.8253937              0.23472695
      0.6401217              0.81375733
S    1   1.00
      0.1612778              1.00000000
P    1   1.00
      1.5000000              1.0000000
P    1   1.00
      0.3750000              1.0000000
****
C     0
S    6   1.00
   3047.5249000              0.0018347
    457.3695100              0.0140373
    103.9486900              0.0688426
     29.2101550              0.2321844
      9.2866630              0.4679413
      3.1639270              0.3623120
SP   3   1.00
      7.8682724             -0.1193324              0.0689991
      1.8812885             -0.1608542              0.3164240
      0.5442493              1.1434564              0.7443083
SP   1   1.00
      0.1687144              1.0000000              1.0000000
D    1   1.00
      1.2520000              1.0000000
D    1   1.00
      0.3130000              1.0000000
F    1   1.00
      0.8000000              1.0000000
****
}

set {
opt_type min
reference rhf
freeze_core true
e_convergence 10
d_convergence 10
ensure_bt_convergence true
dft_spherical_points 590
dft_radial_points 99
}

e = energy('b3lyp')

print_out('Grab this energy {0}'.format(e))
--------------------------------------------------------------------------

    Molecular point group: c1

    Geometry (in Bohr), charge = 0, multiplicity = 1:

       Center              X                  Y                   Z               Mass
    ------------   -----------------  -----------------  -----------------  -----------------
         C           -0.003044616317     0.003706871015    -0.000000341793    12.000000000000
         C            0.000716364783    -0.001534740885    -2.481780696693    12.000000000000
         H           -1.237951938217    -1.246060188885    -3.533524861993     1.007825032230
         H            1.243907933283     1.239945128615    -3.532042681493     1.007825032230
         C            0.001145910583    -0.000993307185     2.481780409507    12.000000000000
         H            1.243146938483    -1.248801090985     3.535556128507     1.007825032230
         H           -1.235025002417     1.240880108415     3.530018904107     1.007825032230

  Charge       = 0
  Multiplicity = 1
  Basis Set: ANONYMOUS62AC2A4A
    Blend: 6-31G_2DFP_
  Basis Set: (ANONYMOUS62AC2A4A AUX)
    Blend: DEF2-UNIVERSAL-JKFIT

    Orbital Energies [Eh]
    ---------------------

    Doubly Occupied:

       1A    -10.201509     2A    -10.184656     3A    -10.184626
       4A     -0.784871     5A     -0.699880     6A     -0.519289
       7A     -0.446531     8A     -0.441007     9A     -0.440897
      10A     -0.263654    11A     -0.263308

  @DF-RKS Final Energy:  -116.66711055511952

   => Energetics <=

    Nuclear Repulsion Energy =             59.0064956178765740
    One-Electron Energy =                -272.1736966458825009
    Two-Electron Energy =                 110.8315607654162562
    DFT Exchange-Correlation Energy =     -14.3314702925298434
    Empirical Dispersion Energy =           0.0000000000000000
    VV10 Nonlocal Energy =                  0.0000000000000000
    Total Energy =                       -116.6671105551195211

  Dipole Moment: [D]
     X:     0.0019      Y:    -0.0023      Z:    -0.0000     Total:     0.0030

*** Psi4 exiting successfully. Buy a developer a beer!
