                               Psi4 1.4a2.dev629

  ==> Input File <==

--------------------------------------------------------------------------
import os
memory 14 GB

molecule {
 X   -1.4091115017   -1.4193156183   -0.0000000000
 C   -0.0000010585    0.0015867589   -0.0060729267
 X    1.4091103906   -1.4193167294   -0.0000000000
 C    0.0015627292    0.0020676518   -2.4835382725
 H   -1.2386931485   -1.2415017579   -3.5256269950
 H    1.2409581914    1.2437403007   -3.5351822098
 C   -0.0015705506    0.0020783923    2.4800381233
 H    1.2401693190   -1.2429739983    3.5304094309
 H   -1.2424243711    1.2452078801    3.5399728497
units bohr
}

basis {

assign 6-31g_2dfp_

[ 6-31g_2dfp_ ]
spherical

!----------------------------------------------------------------------
! Basis Set Exchange
! Version v0.8.13
! https://www.basissetexchange.org
!----------------------------------------------------------------------
!   Basis set: 6-31G(2df,p)
! Description: 6-31G(2df,p)
!        Role: orbital
!     Version: 0  (Data from the original Basis Set Exchange)
!----------------------------------------------------------------------

****
H     0
S    3   1.00
     18.7311370              0.03349460
      2.8253937              0.23472695
      0.6401217              0.81375733
S    1   1.00
      0.1612778              1.00000000
P    1   1.00
      1.5000000              1.0000000
P    1   1.00
      0.3750000              1.0000000
****
C     0
S    6   1.00
   3047.5249000              0.0018347
    457.3695100              0.0140373
    103.9486900              0.0688426
     29.2101550              0.2321844
      9.2866630              0.4679413
      3.1639270              0.3623120
SP   3   1.00
      7.8682724             -0.1193324              0.0689991
      1.8812885             -0.1608542              0.3164240
      0.5442493              1.1434564              0.7443083
SP   1   1.00
      0.1687144              1.0000000              1.0000000
D    1   1.00
      1.2520000              1.0000000
D    1   1.00
      0.3130000              1.0000000
F    1   1.00
      0.8000000              1.0000000
****
}

set {
opt_type min
reference rhf
freeze_core true
e_convergence 10
d_convergence 10
ensure_bt_convergence true
dft_spherical_points 590
dft_radial_points 99
}

e = energy('b3lyp')

print_out('Grab this energy {0}'.format(e))
--------------------------------------------------------------------------

    Molecular point group: c1

    Geometry (in Bohr), charge = 0, multiplicity = 1:

       Center              X                  Y                   Z               Mass
    ------------   -----------------  -----------------  -----------------  -----------------
         C            0.000001351859    -0.000244334700    -0.003444260505    12.000000000000
         C            0.001565139559     0.000236558200    -2.480909606305    12.000000000000
         H           -1.238690738141    -1.243332851500    -3.522998328805     1.007825032230
         H            1.240960601759     1.241909207100    -3.532553543605     1.007825032230
         C           -0.001568140241     0.000247298700     2.482666789495    12.000000000000
         H            1.240171729359    -1.244805091900     3.533038097095     1.007825032230
         H           -1.242421960741     1.243376786500     3.542601515895     1.007825032230

  Charge       = 0
  Multiplicity = 1
  Basis Set: ANONYMOUSD06EC4AB
    Blend: 6-31G_2DFP_
  Basis Set: (ANONYMOUSD06EC4AB AUX)
    Blend: DEF2-UNIVERSAL-JKFIT

    Orbital Energies [Eh]
    ---------------------

    Doubly Occupied:

       1A    -10.201510     2A    -10.185103     3A    -10.184179
       4A     -0.784881     5A     -0.699870     6A     -0.519287
       7A     -0.446530     8A     -0.441800     9A     -0.440109
      10A     -0.264032    11A     -0.262932

  @DF-RKS Final Energy:  -116.66709764986295

   => Energetics <=

    Nuclear Repulsion Energy =             59.0065775834140211
    One-Electron Energy =                -272.1738200071569622
    Two-Electron Energy =                 110.8316194647013901
    DFT Exchange-Correlation Energy =     -14.3314746908213948
    Empirical Dispersion Energy =           0.0000000000000000
    VV10 Nonlocal Energy =                  0.0000000000000000
    Total Energy =                       -116.6670976498629528

  Dipole Moment: [D]
     X:     0.0000      Y:    -0.0003      Z:    -0.0074     Total:     0.0074

*** Psi4 exiting successfully. Buy a developer a beer!
