                               Psi4 1.4a2.dev629

  ==> Input File <==

--------------------------------------------------------------------------
import os
memory 14 GB

molecule {
 X   -1.4158332662   -1.4125938538    0.0000000000
 C    0.0053470267   -0.0000100637   -0.0000000015
 X    1.4126008512   -1.4158262688   -0.0000000000
 C    0.0013720730    0.0002684683   -2.4817855426
 H   -1.2422644824   -1.2433350006   -3.5338090205
 H    1.2398309431    1.2424360959   -3.5317728970
 C    0.0013755924   -0.0002706905    2.4817855472
 H    1.2416737034   -1.2405930968    3.5317832409
 H   -1.2441024411    1.2414972901    3.5337986736
units bohr
}

basis {

assign 6-31g_2dfp_

[ 6-31g_2dfp_ ]
spherical

!----------------------------------------------------------------------
! Basis Set Exchange
! Version v0.8.13
! https://www.basissetexchange.org
!----------------------------------------------------------------------
!   Basis set: 6-31G(2df,p)
! Description: 6-31G(2df,p)
!        Role: orbital
!     Version: 0  (Data from the original Basis Set Exchange)
!----------------------------------------------------------------------

****
H     0
S    3   1.00
     18.7311370              0.03349460
      2.8253937              0.23472695
      0.6401217              0.81375733
S    1   1.00
      0.1612778              1.00000000
P    1   1.00
      1.5000000              1.0000000
P    1   1.00
      0.3750000              1.0000000
****
C     0
S    6   1.00
   3047.5249000              0.0018347
    457.3695100              0.0140373
    103.9486900              0.0688426
     29.2101550              0.2321844
      9.2866630              0.4679413
      3.1639270              0.3623120
SP   3   1.00
      7.8682724             -0.1193324              0.0689991
      1.8812885             -0.1608542              0.3164240
      0.5442493              1.1434564              0.7443083
SP   1   1.00
      0.1687144              1.0000000              1.0000000
D    1   1.00
      1.2520000              1.0000000
D    1   1.00
      0.3130000              1.0000000
F    1   1.00
      0.8000000              1.0000000
****
}

set {
opt_type min
reference rhf
freeze_core true
e_convergence 10
d_convergence 10
ensure_bt_convergence true
dft_spherical_points 590
dft_radial_points 99
}

e = energy('b3lyp')

print_out('Grab this energy {0}'.format(e))
--------------------------------------------------------------------------

    Molecular point group: c1

    Geometry (in Bohr), charge = 0, multiplicity = 1:

       Center              X                  Y                   Z               Mass
    ------------   -----------------  -----------------  -----------------  -----------------
         C            0.003042930145    -0.000006513957    -0.000000002354    12.000000000000
         C           -0.000932023555     0.000272018043    -2.481785543454    12.000000000000
         H           -1.244568578955    -1.243331450857    -3.533809021354     1.007825032230
         H            1.237526846545     1.242439645643    -3.531772897854     1.007825032230
         C           -0.000928504155    -0.000267140757     2.481785546346    12.000000000000
         H            1.239369606845    -1.240589547057     3.531783240046     1.007825032230
         H           -1.246406537655     1.241500839843     3.533798672746     1.007825032230

  Charge       = 0
  Multiplicity = 1
  Basis Set: ANONYMOUS7275EB64
    Blend: 6-31G_2DFP_
  Basis Set: (ANONYMOUS7275EB64 AUX)
    Blend: DEF2-UNIVERSAL-JKFIT

    Orbital Energies [Eh]
    ---------------------

    Doubly Occupied:

       1A    -10.201509     2A    -10.184656     3A    -10.184627
       4A     -0.784870     5A     -0.699879     6A     -0.519288
       7A     -0.446532     8A     -0.440953     9A     -0.440952
      10A     -0.263482    11A     -0.263481

  @DF-RKS Final Energy:  -116.66711744873422

   => Energetics <=

    Nuclear Repulsion Energy =             59.0064507222072123
    One-Electron Energy =                -272.1736186294965592
    Two-Electron Energy =                 110.8315188176870549
    DFT Exchange-Correlation Energy =     -14.3314683591319163
    Empirical Dispersion Energy =           0.0000000000000000
    VV10 Nonlocal Energy =                  0.0000000000000000
    Total Energy =                       -116.6671174487342171

  Dipole Moment: [D]
     X:    -0.0019      Y:     0.0000      Z:    -0.0000     Total:     0.0019

*** Psi4 exiting successfully. Buy a developer a beer!
