                               Psi4 1.4a2.dev629

  ==> Input File <==

--------------------------------------------------------------------------
import os
memory 14 GB

molecule {
 X   -1.4158521657   -1.4125749543   -0.0000000000
 C    0.0053426846   -0.0007401254   -0.0000002147
 X    1.4126161972   -1.4158109228   -0.0000000000
 C    0.0001285960    0.0015056623   -2.4817824613
 H   -1.2418113581   -1.2437907970   -3.5338026242
 H    1.2402608570    1.2420005769   -3.5317771625
 C    0.0026175640    0.0009695533    2.4817864402
 H    1.2412272663   -1.2410463291    3.5317704819
 H   -1.2445296413    1.2410602160    3.5338055406
units bohr
}

basis {

assign 6-31g_2dfp_

[ 6-31g_2dfp_ ]
spherical

!----------------------------------------------------------------------
! Basis Set Exchange
! Version v0.8.13
! https://www.basissetexchange.org
!----------------------------------------------------------------------
!   Basis set: 6-31G(2df,p)
! Description: 6-31G(2df,p)
!        Role: orbital
!     Version: 0  (Data from the original Basis Set Exchange)
!----------------------------------------------------------------------

****
H     0
S    3   1.00
     18.7311370              0.03349460
      2.8253937              0.23472695
      0.6401217              0.81375733
S    1   1.00
      0.1612778              1.00000000
P    1   1.00
      1.5000000              1.0000000
P    1   1.00
      0.3750000              1.0000000
****
C     0
S    6   1.00
   3047.5249000              0.0018347
    457.3695100              0.0140373
    103.9486900              0.0688426
     29.2101550              0.2321844
      9.2866630              0.4679413
      3.1639270              0.3623120
SP   3   1.00
      7.8682724             -0.1193324              0.0689991
      1.8812885             -0.1608542              0.3164240
      0.5442493              1.1434564              0.7443083
SP   1   1.00
      0.1687144              1.0000000              1.0000000
D    1   1.00
      1.2520000              1.0000000
D    1   1.00
      0.3130000              1.0000000
F    1   1.00
      0.8000000              1.0000000
****
}

set {
opt_type min
reference rhf
freeze_core true
e_convergence 10
d_convergence 10
ensure_bt_convergence true
dft_spherical_points 590
dft_radial_points 99
}

e = energy('b3lyp')

print_out('Grab this energy {0}'.format(e))
--------------------------------------------------------------------------

    Molecular point group: c1

    Geometry (in Bohr), charge = 0, multiplicity = 1:

       Center              X                  Y                   Z               Mass
    ------------   -----------------  -----------------  -----------------  -----------------
         C            0.003040104247    -0.001215524632    -0.000001248310    12.000000000000
         C           -0.002173984353     0.001030263068    -2.481783494910    12.000000000000
         H           -1.244113938453    -1.244266196232    -3.533803657810     1.007825032230
         H            1.237958276647     1.241525177668    -3.531778196110     1.007825032230
         C            0.000314983647     0.000494154068     2.481785406590    12.000000000000
         H            1.238924685947    -1.241521728332     3.531769448290     1.007825032230
         H           -1.246832221653     1.240584816768     3.533804506990     1.007825032230

  Charge       = 0
  Multiplicity = 1
  Basis Set: ANONYMOUSB13019B5
    Blend: 6-31G_2DFP_
  Basis Set: (ANONYMOUSB13019B5 AUX)
    Blend: DEF2-UNIVERSAL-JKFIT

    Orbital Energies [Eh]
    ---------------------

    Doubly Occupied:

       1A    -10.201510     2A    -10.184656     3A    -10.184627
       4A     -0.784870     5A     -0.699879     6A     -0.519288
       7A     -0.446532     8A     -0.440953     9A     -0.440951
      10A     -0.263483    11A     -0.263480

  @DF-RKS Final Energy:  -116.66711693586214

   => Energetics <=

    Nuclear Repulsion Energy =             59.0064590145652446
    One-Electron Energy =                -272.1736337177292171
    Two-Electron Energy =                 110.8315262080330967
    DFT Exchange-Correlation Energy =     -14.3314684407312765
    Empirical Dispersion Energy =           0.0000000000000000
    VV10 Nonlocal Energy =                  0.0000000000000000
    Total Energy =                       -116.6671169358621398

  Dipole Moment: [D]
     X:    -0.0019      Y:    -0.0022      Z:    -0.0000     Total:     0.0030

*** Psi4 exiting successfully. Buy a developer a beer!
