                               Psi4 1.4a2.dev629

  ==> Input File <==

--------------------------------------------------------------------------
import os
memory 14 GB

molecule {
 X   -1.4141998096   -1.4142273104   -0.0000000000
 C    0.0019214064    0.0019435688   -0.0000101756
 X    1.4138537143   -1.4145734057    0.0000000000
 C   -0.0043392864   -0.0043311247   -2.4817830865
 H   -1.2405402911   -1.2404081836   -3.5323749790
 H    1.2435340217    1.2433959829   -3.5331768689
 C    0.0003512206    0.0003776725    2.4817775737
 H    1.2419409078   -1.2420043878    3.5327870135
 H   -1.2425218838    1.2414000680    3.5327805228
units bohr
}

basis {

assign 6-31g_2dfp_

[ 6-31g_2dfp_ ]
spherical

!----------------------------------------------------------------------
! Basis Set Exchange
! Version v0.8.13
! https://www.basissetexchange.org
!----------------------------------------------------------------------
!   Basis set: 6-31G(2df,p)
! Description: 6-31G(2df,p)
!        Role: orbital
!     Version: 0  (Data from the original Basis Set Exchange)
!----------------------------------------------------------------------

****
H     0
S    3   1.00
     18.7311370              0.03349460
      2.8253937              0.23472695
      0.6401217              0.81375733
S    1   1.00
      0.1612778              1.00000000
P    1   1.00
      1.5000000              1.0000000
P    1   1.00
      0.3750000              1.0000000
****
C     0
S    6   1.00
   3047.5249000              0.0018347
    457.3695100              0.0140373
    103.9486900              0.0688426
     29.2101550              0.2321844
      9.2866630              0.4679413
      3.1639270              0.3623120
SP   3   1.00
      7.8682724             -0.1193324              0.0689991
      1.8812885             -0.1608542              0.3164240
      0.5442493              1.1434564              0.7443083
SP   1   1.00
      0.1687144              1.0000000              1.0000000
D    1   1.00
      1.2520000              1.0000000
D    1   1.00
      0.3130000              1.0000000
F    1   1.00
      0.8000000              1.0000000
****
}

set {
opt_type min
reference rhf
freeze_core true
e_convergence 10
d_convergence 10
ensure_bt_convergence true
dft_spherical_points 590
dft_radial_points 99
}

e = energy('b3lyp')

print_out('Grab this energy {0}'.format(e))
--------------------------------------------------------------------------

    Molecular point group: c1

    Geometry (in Bohr), charge = 0, multiplicity = 1:

       Center              X                  Y                   Z               Mass
    ------------   -----------------  -----------------  -----------------  -----------------
         C            0.002480176119     0.002486056064    -0.000005867730    12.000000000000
         C           -0.003780516681    -0.003788637436    -2.481778778630    12.000000000000
         H           -1.239981521381    -1.239865696336    -3.532370671130     1.007825032230
         H            1.244092791419     1.243938470164    -3.533172561030     1.007825032230
         C            0.000909990319     0.000920159764     2.481781881570    12.000000000000
         H            1.242499677519    -1.241461900536     3.532791321370     1.007825032230
         H           -1.241963114081     1.241942555264     3.532784830670     1.007825032230

  Charge       = 0
  Multiplicity = 1
  Basis Set: ANONYMOUSE2AF85E0
    Blend: 6-31G_2DFP_
  Basis Set: (ANONYMOUSE2AF85E0 AUX)
    Blend: DEF2-UNIVERSAL-JKFIT

    Orbital Energies [Eh]
    ---------------------

    Doubly Occupied:

       1A    -10.201511     2A    -10.184657     3A    -10.184627
       4A     -0.784871     5A     -0.699880     6A     -0.519300
       7A     -0.446642     8A     -0.440954     9A     -0.440836
      10A     -0.263496    11A     -0.263466

  @DF-RKS Final Energy:  -116.66710092650774

   => Energetics <=

    Nuclear Repulsion Energy =             59.0065412870935333
    One-Electron Energy =                -272.1737436644422701
    Two-Electron Energy =                 110.8315747044723167
    DFT Exchange-Correlation Energy =     -14.3314732536313354
    Empirical Dispersion Energy =           0.0000000000000000
    VV10 Nonlocal Energy =                  0.0000000000000000
    Total Energy =                       -116.6671009265077430

  Dipole Moment: [D]
     X:    -0.0027      Y:    -0.0027      Z:     0.0001     Total:     0.0038

*** Psi4 exiting successfully. Buy a developer a beer!
