                               Psi4 1.4a2.dev629

  ==> Input File <==

--------------------------------------------------------------------------
import os
memory 14 GB

molecule {
 X   -1.4139227364   -1.4145043836    0.0000000000
 C    0.0000000000    0.0037397862    0.0000000000
 X    1.4139227364   -1.4145043836   -0.0000000000
 C    0.0021272689    0.0026894863   -2.4817876061
 H   -1.2412751059   -1.2462250069   -3.5347419684
 H    1.2384083351    1.2419564511   -3.5308382551
 C   -0.0021272689    0.0026894863    2.4817876061
 H    1.2412751059   -1.2462250069    3.5347419684
 H   -1.2384083351    1.2419564511    3.5308382551
units bohr
}

basis {

assign 6-31g_2dfp_

[ 6-31g_2dfp_ ]
spherical

!----------------------------------------------------------------------
! Basis Set Exchange
! Version v0.8.13
! https://www.basissetexchange.org
!----------------------------------------------------------------------
!   Basis set: 6-31G(2df,p)
! Description: 6-31G(2df,p)
!        Role: orbital
!     Version: 0  (Data from the original Basis Set Exchange)
!----------------------------------------------------------------------

****
H     0
S    3   1.00
     18.7311370              0.03349460
      2.8253937              0.23472695
      0.6401217              0.81375733
S    1   1.00
      0.1612778              1.00000000
P    1   1.00
      1.5000000              1.0000000
P    1   1.00
      0.3750000              1.0000000
****
C     0
S    6   1.00
   3047.5249000              0.0018347
    457.3695100              0.0140373
    103.9486900              0.0688426
     29.2101550              0.2321844
      9.2866630              0.4679413
      3.1639270              0.3623120
SP   3   1.00
      7.8682724             -0.1193324              0.0689991
      1.8812885             -0.1608542              0.3164240
      0.5442493              1.1434564              0.7443083
SP   1   1.00
      0.1687144              1.0000000              1.0000000
D    1   1.00
      1.2520000              1.0000000
D    1   1.00
      0.3130000              1.0000000
F    1   1.00
      0.8000000              1.0000000
****
}

set {
opt_type min
reference rhf
freeze_core true
e_convergence 10
d_convergence 10
ensure_bt_convergence true
dft_spherical_points 590
dft_radial_points 99
}

e = energy('b3lyp')

print_out('Grab this energy {0}'.format(e))
--------------------------------------------------------------------------

    Molecular point group: c2

    Geometry (in Bohr), charge = 0, multiplicity = 1:

       Center              X                  Y                   Z               Mass
    ------------   -----------------  -----------------  -----------------  -----------------
         C            0.000000000000     0.000000000000     0.001221227210    12.000000000000
         C           -0.002127268900    -2.481787606100     0.000170927310    12.000000000000
         H            1.241275105900    -3.534741968400    -1.248743565890     1.007825032230
         H           -1.238408335100    -3.530838255100     1.239437892110     1.007825032230
         C            0.002127268900     2.481787606100     0.000170927310    12.000000000000
         H           -1.241275105900     3.534741968400    -1.248743565890     1.007825032230
         H            1.238408335100     3.530838255100     1.239437892110     1.007825032230

  Charge       = 0
  Multiplicity = 1
  Basis Set: ANONYMOUS99062FCA
    Blend: 6-31G_2DFP_
  Basis Set: (ANONYMOUS99062FCA AUX)
    Blend: DEF2-UNIVERSAL-JKFIT

    Orbital Energies [Eh]
    ---------------------

    Doubly Occupied:

       1A    -10.201511     2A    -10.184656     1B    -10.184627
       3A     -0.784871     2B     -0.699882     4A     -0.519298
       3B     -0.446589     5A     -0.441007     4B     -0.440837
       5B     -0.263670     6A     -0.263293

  @DF-RKS Final Energy:  -116.66709614510344

   => Energetics <=

    Nuclear Repulsion Energy =             59.0065310323448458
    One-Electron Energy =                -272.1737069188599776
    Two-Electron Energy =                 110.8315557944119973
    DFT Exchange-Correlation Energy =     -14.3314760530002960
    Empirical Dispersion Energy =           0.0000000000000000
    VV10 Nonlocal Energy =                  0.0000000000000000
    Total Energy =                       -116.6670961451034430

  Dipole Moment: [D]
     X:     0.0000      Y:    -0.0000      Z:     0.0004     Total:     0.0004

*** Psi4 exiting successfully. Buy a developer a beer!
