                               Psi4 1.4a2.dev629

  ==> Input File <==

--------------------------------------------------------------------------
import os
memory 14 GB

molecule {
 X   -1.4163976258   -1.4120294942   -0.0000000000
 C   -0.0026281974    0.0030505772   -0.0000012379
 X    1.4096314357   -1.4187956843   -0.0000000000
 C    0.0014637547    0.0021934512   -2.4817864564
 H   -1.2404116512   -1.2418038444   -3.5295601166
 H    1.2434181448    1.2422253574   -3.5360224368
 C    0.0006904445   -0.0000075331    2.4817833992
 H    1.2478775990   -1.2397858455    3.5369973389
 H   -1.2436439043    1.2365258957    3.5285895095
units bohr
}

basis {

assign 6-31g_2dfp_

[ 6-31g_2dfp_ ]
spherical

!----------------------------------------------------------------------
! Basis Set Exchange
! Version v0.8.13
! https://www.basissetexchange.org
!----------------------------------------------------------------------
!   Basis set: 6-31G(2df,p)
! Description: 6-31G(2df,p)
!        Role: orbital
!     Version: 0  (Data from the original Basis Set Exchange)
!----------------------------------------------------------------------

****
H     0
S    3   1.00
     18.7311370              0.03349460
      2.8253937              0.23472695
      0.6401217              0.81375733
S    1   1.00
      0.1612778              1.00000000
P    1   1.00
      1.5000000              1.0000000
P    1   1.00
      0.3750000              1.0000000
****
C     0
S    6   1.00
   3047.5249000              0.0018347
    457.3695100              0.0140373
    103.9486900              0.0688426
     29.2101550              0.2321844
      9.2866630              0.4679413
      3.1639270              0.3623120
SP   3   1.00
      7.8682724             -0.1193324              0.0689991
      1.8812885             -0.1608542              0.3164240
      0.5442493              1.1434564              0.7443083
SP   1   1.00
      0.1687144              1.0000000              1.0000000
D    1   1.00
      1.2520000              1.0000000
D    1   1.00
      0.3130000              1.0000000
F    1   1.00
      0.8000000              1.0000000
****
}

set {
opt_type min
reference rhf
freeze_core true
e_convergence 10
d_convergence 10
ensure_bt_convergence true
dft_spherical_points 590
dft_radial_points 99
}

e = energy('b3lyp')

print_out('Grab this energy {0}'.format(e))
--------------------------------------------------------------------------

    Molecular point group: c1

    Geometry (in Bohr), charge = 0, multiplicity = 1:

       Center              X                  Y                   Z               Mass
    ------------   -----------------  -----------------  -----------------  -----------------
         C           -0.002668387566     0.001552317195    -0.000000058508    12.000000000000
         C            0.001423564534     0.000695191195    -2.481785277008    12.000000000000
         H           -1.240451841366    -1.243302104405    -3.529558937208     1.007825032230
         H            1.243377954634     1.240727097395    -3.536021257408     1.007825032230
         C            0.000650254334    -0.001505793105     2.481784578592    12.000000000000
         H            1.247837408834    -1.241284105505     3.536998518292     1.007825032230
         H           -1.243684094466     1.235027635695     3.528590688892     1.007825032230

  Charge       = 0
  Multiplicity = 1
  Basis Set: ANONYMOUSAAEE8003
    Blend: 6-31G_2DFP_
  Basis Set: (ANONYMOUSAAEE8003 AUX)
    Blend: DEF2-UNIVERSAL-JKFIT

    Orbital Energies [Eh]
    ---------------------

    Doubly Occupied:

       1A    -10.201510     2A    -10.184656     3A    -10.184626
       4A     -0.784871     5A     -0.699880     6A     -0.519288
       7A     -0.446533     8A     -0.441004     9A     -0.440899
      10A     -0.263647    11A     -0.263315

  @DF-RKS Final Energy:  -116.66711359616923

   => Energetics <=

    Nuclear Repulsion Energy =             59.0064689781324176
    One-Electron Energy =                -272.1736489369872629
    Two-Electron Energy =                 110.8315351540387041
    DFT Exchange-Correlation Energy =     -14.3314687913531085
    Empirical Dispersion Energy =           0.0000000000000000
    VV10 Nonlocal Energy =                  0.0000000000000000
    Total Energy =                       -116.6671135961692300

  Dipole Moment: [D]
     X:     0.0015      Y:    -0.0009      Z:    -0.0000     Total:     0.0017

*** Psi4 exiting successfully. Buy a developer a beer!
