                               Psi4 1.4a2.dev629

  ==> Input File <==

--------------------------------------------------------------------------
import os
memory 14 GB

molecule {
 X   -1.4126010895   -1.4158260305   -0.0000000000
 C   -0.0053415724   -0.0000100366    0.0000000015
 X    1.4158330256   -1.4125940944   -0.0000000000
 C   -0.0013745448   -0.0002689077   -2.4809661510
 H   -1.2379855079   -1.2369022540   -3.5317287518
 H    1.2404107275    1.2378087649   -3.5337544204
 C   -0.0013710341    0.0002666869    2.4809661465
 H    1.2385730286   -1.2396462158    3.5337647221
 H   -1.2361430331    1.2387449673    3.5317184531
units bohr
}

basis {

assign 6-31g_2dfp_

[ 6-31g_2dfp_ ]
spherical

!----------------------------------------------------------------------
! Basis Set Exchange
! Version v0.8.13
! https://www.basissetexchange.org
!----------------------------------------------------------------------
!   Basis set: 6-31G(2df,p)
! Description: 6-31G(2df,p)
!        Role: orbital
!     Version: 0  (Data from the original Basis Set Exchange)
!----------------------------------------------------------------------

****
H     0
S    3   1.00
     18.7311370              0.03349460
      2.8253937              0.23472695
      0.6401217              0.81375733
S    1   1.00
      0.1612778              1.00000000
P    1   1.00
      1.5000000              1.0000000
P    1   1.00
      0.3750000              1.0000000
****
C     0
S    6   1.00
   3047.5249000              0.0018347
    457.3695100              0.0140373
    103.9486900              0.0688426
     29.2101550              0.2321844
      9.2866630              0.4679413
      3.1639270              0.3623120
SP   3   1.00
      7.8682724             -0.1193324              0.0689991
      1.8812885             -0.1608542              0.3164240
      0.5442493              1.1434564              0.7443083
SP   1   1.00
      0.1687144              1.0000000              1.0000000
D    1   1.00
      1.2520000              1.0000000
D    1   1.00
      0.3130000              1.0000000
F    1   1.00
      0.8000000              1.0000000
****
}

set {
opt_type min
reference rhf
freeze_core true
e_convergence 10
d_convergence 10
ensure_bt_convergence true
dft_spherical_points 590
dft_radial_points 99
}

e = energy('b3lyp')

print_out('Grab this energy {0}'.format(e))
--------------------------------------------------------------------------

    Molecular point group: c1

    Geometry (in Bohr), charge = 0, multiplicity = 1:

       Center              X                  Y                   Z               Mass
    ------------   -----------------  -----------------  -----------------  -----------------
         C           -0.003039558526    -0.000006494741     0.000000002324    12.000000000000
         C            0.000927469074    -0.000265365841    -2.480966150176    12.000000000000
         H           -1.235683494026    -1.236898712141    -3.531728750976     1.007825032230
         H            1.242712741374     1.237812306759    -3.533754419576     1.007825032230
         C            0.000930979774     0.000270228759     2.480966147324    12.000000000000
         H            1.240875042474    -1.239642673941     3.533764722924     1.007825032230
         H           -1.233841019226     1.238748509159     3.531718453924     1.007825032230

  Charge       = 0
  Multiplicity = 1
  Basis Set: ANONYMOUS5FF56F74
    Blend: 6-31G_2DFP_
  Basis Set: (ANONYMOUS5FF56F74 AUX)
    Blend: DEF2-UNIVERSAL-JKFIT

    Orbital Energies [Eh]
    ---------------------

    Doubly Occupied:

       1A    -10.201433     2A    -10.184169     3A    -10.184138
       4A     -0.785073     5A     -0.700243     6A     -0.520006
       7A     -0.447107     8A     -0.441164     9A     -0.441163
      10A     -0.263546    11A     -0.263546

  @DF-RKS Final Energy:  -116.66711564964162

   => Energetics <=

    Nuclear Repulsion Energy =             59.0487737257320120
    One-Electron Energy =                -272.2534698145204857
    Two-Electron Energy =                 110.8720163886294614
    DFT Exchange-Correlation Energy =     -14.3344359494826055
    Empirical Dispersion Energy =           0.0000000000000000
    VV10 Nonlocal Energy =                  0.0000000000000000
    Total Energy =                       -116.6671156496416160

  Dipole Moment: [D]
     X:     0.0019      Y:     0.0000      Z:     0.0000     Total:     0.0019

*** Psi4 exiting successfully. Buy a developer a beer!
