                               Psi4 1.4a2.dev629

  ==> Input File <==

--------------------------------------------------------------------------
import os
memory 14 GB

molecule {
 X   -1.4130146367   -1.4154124833   -0.0000000000
 C   -0.0000019548    0.0030459052   -0.0016349828
 X    1.4130201258   -1.4154069942   -0.0000000000
 C    0.0003860640    0.0010924952   -2.4827019834
 H   -1.2477938102   -1.2444361251   -3.5324064404
 H    1.2471765465    1.2430193677   -3.5314331442
 C   -0.0003864675    0.0010902718    2.4808738972
 H    1.2405072988   -1.2371588295    3.5341441784
 H   -1.2398931659    1.2357392722    3.5331584753
units bohr
}

basis {

assign 6-31g_2dfp_

[ 6-31g_2dfp_ ]
spherical

!----------------------------------------------------------------------
! Basis Set Exchange
! Version v0.8.13
! https://www.basissetexchange.org
!----------------------------------------------------------------------
!   Basis set: 6-31G(2df,p)
! Description: 6-31G(2df,p)
!        Role: orbital
!     Version: 0  (Data from the original Basis Set Exchange)
!----------------------------------------------------------------------

****
H     0
S    3   1.00
     18.7311370              0.03349460
      2.8253937              0.23472695
      0.6401217              0.81375733
S    1   1.00
      0.1612778              1.00000000
P    1   1.00
      1.5000000              1.0000000
P    1   1.00
      0.3750000              1.0000000
****
C     0
S    6   1.00
   3047.5249000              0.0018347
    457.3695100              0.0140373
    103.9486900              0.0688426
     29.2101550              0.2321844
      9.2866630              0.4679413
      3.1639270              0.3623120
SP   3   1.00
      7.8682724             -0.1193324              0.0689991
      1.8812885             -0.1608542              0.3164240
      0.5442493              1.1434564              0.7443083
SP   1   1.00
      0.1687144              1.0000000              1.0000000
D    1   1.00
      1.2520000              1.0000000
D    1   1.00
      0.3130000              1.0000000
F    1   1.00
      0.8000000              1.0000000
****
}

set {
opt_type min
reference rhf
freeze_core true
e_convergence 10
d_convergence 10
ensure_bt_convergence true
dft_spherical_points 590
dft_radial_points 99
}

e = energy('b3lyp')

print_out('Grab this energy {0}'.format(e))
--------------------------------------------------------------------------

    Molecular point group: c1

    Geometry (in Bohr), charge = 0, multiplicity = 1:

       Center              X                  Y                   Z               Mass
    ------------   -----------------  -----------------  -----------------  -----------------
         C           -0.000001169042     0.001549936864    -0.000684060393    12.000000000000
         C            0.000386849758    -0.000403473136    -2.481751060993    12.000000000000
         H           -1.247793024442    -1.245932093436    -3.531455517993     1.007825032230
         H            1.247177332258     1.241523399364    -3.530482221793     1.007825032230
         C           -0.000385681742    -0.000405696536     2.481824819607    12.000000000000
         H            1.240508084558    -1.238654797836     3.535095100807     1.007825032230
         H           -1.239892380142     1.234243303864     3.534109397707     1.007825032230

  Charge       = 0
  Multiplicity = 1
  Basis Set: ANONYMOUSA1CE0B38
    Blend: 6-31G_2DFP_
  Basis Set: (ANONYMOUSA1CE0B38 AUX)
    Blend: DEF2-UNIVERSAL-JKFIT

    Orbital Energies [Eh]
    ---------------------

    Doubly Occupied:

       1A    -10.201510     2A    -10.184968     3A    -10.184314
       4A     -0.784870     5A     -0.699881     6A     -0.519293
       7A     -0.446529     8A     -0.441004     9A     -0.440899
      10A     -0.263684    11A     -0.263278

  @DF-RKS Final Energy:  -116.66710787696367

   => Energetics <=

    Nuclear Repulsion Energy =             59.0064799817015384
    One-Electron Energy =                -272.1736546426802761
    Two-Electron Energy =                 110.8315371179828333
    DFT Exchange-Correlation Energy =     -14.3314703339677703
    Empirical Dispersion Energy =           0.0000000000000000
    VV10 Nonlocal Energy =                  0.0000000000000000
    Total Energy =                       -116.6671078769636694

  Dipole Moment: [D]
     X:    -0.0000      Y:    -0.0009      Z:     0.0016     Total:     0.0018

*** Psi4 exiting successfully. Buy a developer a beer!
