                               Psi4 1.4a2.dev629

  ==> Input File <==

--------------------------------------------------------------------------
import os
memory 14 GB

molecule {
 X   -1.4141964888   -1.4142306312    0.0000000000
 C   -0.0007301374   -0.0000001998    0.0000000001
 X    1.4142288380   -1.4141982820   -0.0000000000
 C    0.0012389246   -0.0012425858   -2.4817876478
 H   -1.2424199041   -1.2415178455   -3.5327861316
 H    1.2415297214    1.2423968914   -3.5328005357
 C    0.0012390467    0.0012430225    2.4817876474
 H    1.2415113947   -1.2424145310    3.5328009170
 H   -1.2424013951    1.2415370414    3.5327857506
units bohr
}

basis {

assign 6-31g_2dfp_

[ 6-31g_2dfp_ ]
spherical

!----------------------------------------------------------------------
! Basis Set Exchange
! Version v0.8.13
! https://www.basissetexchange.org
!----------------------------------------------------------------------
!   Basis set: 6-31G(2df,p)
! Description: 6-31G(2df,p)
!        Role: orbital
!     Version: 0  (Data from the original Basis Set Exchange)
!----------------------------------------------------------------------

****
H     0
S    3   1.00
     18.7311370              0.03349460
      2.8253937              0.23472695
      0.6401217              0.81375733
S    1   1.00
      0.1612778              1.00000000
P    1   1.00
      1.5000000              1.0000000
P    1   1.00
      0.3750000              1.0000000
****
C     0
S    6   1.00
   3047.5249000              0.0018347
    457.3695100              0.0140373
    103.9486900              0.0688426
     29.2101550              0.2321844
      9.2866630              0.4679413
      3.1639270              0.3623120
SP   3   1.00
      7.8682724             -0.1193324              0.0689991
      1.8812885             -0.1608542              0.3164240
      0.5442493              1.1434564              0.7443083
SP   1   1.00
      0.1687144              1.0000000              1.0000000
D    1   1.00
      1.2520000              1.0000000
D    1   1.00
      0.3130000              1.0000000
F    1   1.00
      0.8000000              1.0000000
****
}

set {
opt_type min
reference rhf
freeze_core true
e_convergence 10
d_convergence 10
ensure_bt_convergence true
dft_spherical_points 590
dft_radial_points 99
}

e = energy('b3lyp')

print_out('Grab this energy {0}'.format(e))
--------------------------------------------------------------------------

    Molecular point group: c1

    Geometry (in Bohr), charge = 0, multiplicity = 1:

       Center              X                  Y                   Z               Mass
    ------------   -----------------  -----------------  -----------------  -----------------
         C           -0.001209259828    -0.000000309996     0.000000000182    12.000000000000
         C            0.000759802172    -0.001242695996    -2.481787647718    12.000000000000
         H           -1.242899026528    -1.241517955696    -3.532786131518     1.007825032230
         H            1.241050598972     1.242396781204    -3.532800535618     1.007825032230
         C            0.000759924272     0.001242912304     2.481787647482    12.000000000000
         H            1.241032272272    -1.242414641196     3.532800917082     1.007825032230
         H           -1.242880517528     1.241536931204     3.532785750682     1.007825032230

  Charge       = 0
  Multiplicity = 1
  Basis Set: ANONYMOUS1A46C4F4
    Blend: 6-31G_2DFP_
  Basis Set: (ANONYMOUS1A46C4F4 AUX)
    Blend: DEF2-UNIVERSAL-JKFIT

    Orbital Energies [Eh]
    ---------------------

    Doubly Occupied:

       1A    -10.201510     2A    -10.184657     3A    -10.184627
       4A     -0.784870     5A     -0.699879     6A     -0.519287
       7A     -0.446531     8A     -0.440954     9A     -0.440953
      10A     -0.263482    11A     -0.263481

  @DF-RKS Final Energy:  -116.66712253085583

   => Energetics <=

    Nuclear Repulsion Energy =             59.0064240304174703
    One-Electron Energy =                -272.1735758909446758
    Two-Electron Energy =                 110.8314958500797616
    DFT Exchange-Correlation Energy =     -14.3314665204083802
    Empirical Dispersion Energy =           0.0000000000000000
    VV10 Nonlocal Energy =                  0.0000000000000000
    Total Energy =                       -116.6671225308558348

  Dipole Moment: [D]
     X:    -0.0023      Y:     0.0000      Z:     0.0000     Total:     0.0023

*** Psi4 exiting successfully. Buy a developer a beer!
