                               Psi4 1.4a2.dev629

  ==> Input File <==

--------------------------------------------------------------------------
import os
memory 14 GB

molecule {
 X   -1.4148612592   -1.4135658608    0.0000000000
 C    0.0019237213   -0.0056670415    0.0000035029
 X    1.4145157618   -1.4139113582    0.0000000000
 C   -0.0017810959   -0.0030569558   -2.4817810993
 H   -1.2426734070   -1.2376814428   -3.5308134530
 H    1.2449708100    1.2425409731   -3.5347513603
 C   -0.0022133643    0.0016439647    2.4817780261
 H    1.2440763026   -1.2392772709    3.5312207614
 H   -1.2439574694    1.2405478721    3.5343436222
units bohr
}

basis {

assign 6-31g_2dfp_

[ 6-31g_2dfp_ ]
spherical

!----------------------------------------------------------------------
! Basis Set Exchange
! Version v0.8.13
! https://www.basissetexchange.org
!----------------------------------------------------------------------
!   Basis set: 6-31G(2df,p)
! Description: 6-31G(2df,p)
!        Role: orbital
!     Version: 0  (Data from the original Basis Set Exchange)
!----------------------------------------------------------------------

****
H     0
S    3   1.00
     18.7311370              0.03349460
      2.8253937              0.23472695
      0.6401217              0.81375733
S    1   1.00
      0.1612778              1.00000000
P    1   1.00
      1.5000000              1.0000000
P    1   1.00
      0.3750000              1.0000000
****
C     0
S    6   1.00
   3047.5249000              0.0018347
    457.3695100              0.0140373
    103.9486900              0.0688426
     29.2101550              0.2321844
      9.2866630              0.4679413
      3.1639270              0.3623120
SP   3   1.00
      7.8682724             -0.1193324              0.0689991
      1.8812885             -0.1608542              0.3164240
      0.5442493              1.1434564              0.7443083
SP   1   1.00
      0.1687144              1.0000000              1.0000000
D    1   1.00
      1.2520000              1.0000000
D    1   1.00
      0.3130000              1.0000000
F    1   1.00
      0.8000000              1.0000000
****
}

set {
opt_type min
reference rhf
freeze_core true
e_convergence 10
d_convergence 10
ensure_bt_convergence true
dft_spherical_points 590
dft_radial_points 99
}

e = energy('b3lyp')

print_out('Grab this energy {0}'.format(e))
--------------------------------------------------------------------------

    Molecular point group: c1

    Geometry (in Bohr), charge = 0, multiplicity = 1:

       Center              X                  Y                   Z               Mass
    ------------   -----------------  -----------------  -----------------  -----------------
         C            0.002483626259    -0.003699024199     0.000003384909    12.000000000000
         C           -0.001221190941    -0.001088938499    -2.481781217291    12.000000000000
         H           -1.242113502041    -1.235713425499    -3.530813570991     1.007825032230
         H            1.245530714959     1.244508990401    -3.534751478291     1.007825032230
         C           -0.001653459341     0.003611982001     2.481777908109    12.000000000000
         H            1.244636207559    -1.237309253599     3.531220643409     1.007825032230
         H           -1.243397564441     1.242515889401     3.534343504209     1.007825032230

  Charge       = 0
  Multiplicity = 1
  Basis Set: ANONYMOUSBC9EBAB4
    Blend: 6-31G_2DFP_
  Basis Set: (ANONYMOUSBC9EBAB4 AUX)
    Blend: DEF2-UNIVERSAL-JKFIT

    Orbital Energies [Eh]
    ---------------------

    Doubly Occupied:

       1A    -10.201510     2A    -10.184656     3A    -10.184627
       4A     -0.784871     5A     -0.699880     6A     -0.519294
       7A     -0.446586     8A     -0.441004     9A     -0.440843
      10A     -0.263654    11A     -0.263307

  @DF-RKS Final Energy:  -116.66710502918879

   => Energetics <=

    Nuclear Repulsion Energy =             59.0065236089618281
    One-Electron Energy =                -272.1737304231201051
    Two-Electron Energy =                 110.8315735847142065
    DFT Exchange-Correlation Energy =     -14.3314717997447243
    Empirical Dispersion Energy =           0.0000000000000000
    VV10 Nonlocal Energy =                  0.0000000000000000
    Total Energy =                       -116.6671050291887894

  Dipole Moment: [D]
     X:    -0.0027      Y:     0.0023      Z:     0.0000     Total:     0.0036

*** Psi4 exiting successfully. Buy a developer a beer!
