                               Psi4 1.4a2.dev629

  ==> Input File <==

--------------------------------------------------------------------------
import os
memory 14 GB

molecule {
 X   -1.4125872801   -1.4158398399    0.0000000000
 C   -0.0053513788    0.0007203599   -0.0000002131
 X    1.4158161406   -1.4126109794    0.0000000000
 C   -0.0001335469   -0.0015114088   -2.4817824645
 H   -1.2421195121   -1.2401381338   -3.5317916210
 H    1.2436748155    1.2419311485   -3.5337881245
 C   -0.0026156256   -0.0009691988    2.4817864439
 H    1.2427169878   -1.2428774721    3.5338110225
 H   -1.2394006004    1.2428684045    3.5317649567
units bohr
}

basis {

assign 6-31g_2dfp_

[ 6-31g_2dfp_ ]
spherical

!----------------------------------------------------------------------
! Basis Set Exchange
! Version v0.8.13
! https://www.basissetexchange.org
!----------------------------------------------------------------------
!   Basis set: 6-31G(2df,p)
! Description: 6-31G(2df,p)
!        Role: orbital
!     Version: 0  (Data from the original Basis Set Exchange)
!----------------------------------------------------------------------

****
H     0
S    3   1.00
     18.7311370              0.03349460
      2.8253937              0.23472695
      0.6401217              0.81375733
S    1   1.00
      0.1612778              1.00000000
P    1   1.00
      1.5000000              1.0000000
P    1   1.00
      0.3750000              1.0000000
****
C     0
S    6   1.00
   3047.5249000              0.0018347
    457.3695100              0.0140373
    103.9486900              0.0688426
     29.2101550              0.2321844
      9.2866630              0.4679413
      3.1639270              0.3623120
SP   3   1.00
      7.8682724             -0.1193324              0.0689991
      1.8812885             -0.1608542              0.3164240
      0.5442493              1.1434564              0.7443083
SP   1   1.00
      0.1687144              1.0000000              1.0000000
D    1   1.00
      1.2520000              1.0000000
D    1   1.00
      0.3130000              1.0000000
F    1   1.00
      0.8000000              1.0000000
****
}

set {
opt_type min
reference rhf
freeze_core true
e_convergence 10
d_convergence 10
ensure_bt_convergence true
dft_spherical_points 590
dft_radial_points 99
}

e = energy('b3lyp')

print_out('Grab this energy {0}'.format(e))
--------------------------------------------------------------------------

    Molecular point group: c1

    Geometry (in Bohr), charge = 0, multiplicity = 1:

       Center              X                  Y                   Z               Mass
    ------------   -----------------  -----------------  -----------------  -----------------
         C           -0.003045762860     0.001203108794    -0.000001247286    12.000000000000
         C            0.002172069040    -0.001028659906    -2.481783498686    12.000000000000
         H           -1.239813896160    -1.239655384906    -3.531792655186     1.007825032230
         H            1.245980431440     1.242413897394    -3.533789158686     1.007825032230
         C           -0.000310009660    -0.000486449906     2.481785409714    12.000000000000
         H            1.245022603740    -1.242394723206     3.533809988314     1.007825032230
         H           -1.237094984460     1.243351153394     3.531763922514     1.007825032230

  Charge       = 0
  Multiplicity = 1
  Basis Set: ANONYMOUSDBB7A1F0
    Blend: 6-31G_2DFP_
  Basis Set: (ANONYMOUSDBB7A1F0 AUX)
    Blend: DEF2-UNIVERSAL-JKFIT

    Orbital Energies [Eh]
    ---------------------

    Doubly Occupied:

       1A    -10.201510     2A    -10.184656     3A    -10.184627
       4A     -0.784870     5A     -0.699879     6A     -0.519288
       7A     -0.446532     8A     -0.440953     9A     -0.440951
      10A     -0.263482    11A     -0.263481

  @DF-RKS Final Energy:  -116.66711693884407

   => Energetics <=

    Nuclear Repulsion Energy =             59.0064590117588210
    One-Electron Energy =                -272.1736337287925380
    Two-Electron Energy =                 110.8315262227328049
    DFT Exchange-Correlation Energy =     -14.3314684445431482
    Empirical Dispersion Energy =           0.0000000000000000
    VV10 Nonlocal Energy =                  0.0000000000000000
    Total Energy =                       -116.6671169388440745

  Dipole Moment: [D]
     X:     0.0019      Y:     0.0023      Z:    -0.0000     Total:     0.0030

*** Psi4 exiting successfully. Buy a developer a beer!
