                               Psi4 1.4a2.dev629

  ==> Input File <==

--------------------------------------------------------------------------
import os
memory 14 GB

molecule {
 X   -1.4183115580   -1.4101155620   -0.0000000000
 C   -0.0093427880   -0.0056805015    0.0000016853
 X    1.4111060022   -1.4173211178    0.0000000000
 C   -0.0005426118   -0.0035667542   -2.4817705523
 H   -1.2367995827   -1.2424363003   -3.5392770981
 H    1.2469263982    1.2416716687   -3.5262404672
 C   -0.0009811927    0.0021377802    2.4817640245
 H    1.2499200654   -1.2344916748    3.5227020546
 H   -1.2419747326    1.2413753418    3.5428203533
units bohr
}

basis {

assign 6-31g_2dfp_

[ 6-31g_2dfp_ ]
spherical

!----------------------------------------------------------------------
! Basis Set Exchange
! Version v0.8.13
! https://www.basissetexchange.org
!----------------------------------------------------------------------
!   Basis set: 6-31G(2df,p)
! Description: 6-31G(2df,p)
!        Role: orbital
!     Version: 0  (Data from the original Basis Set Exchange)
!----------------------------------------------------------------------

****
H     0
S    3   1.00
     18.7311370              0.03349460
      2.8253937              0.23472695
      0.6401217              0.81375733
S    1   1.00
      0.1612778              1.00000000
P    1   1.00
      1.5000000              1.0000000
P    1   1.00
      0.3750000              1.0000000
****
C     0
S    6   1.00
   3047.5249000              0.0018347
    457.3695100              0.0140373
    103.9486900              0.0688426
     29.2101550              0.2321844
      9.2866630              0.4679413
      3.1639270              0.3623120
SP   3   1.00
      7.8682724             -0.1193324              0.0689991
      1.8812885             -0.1608542              0.3164240
      0.5442493              1.1434564              0.7443083
SP   1   1.00
      0.1687144              1.0000000              1.0000000
D    1   1.00
      1.2520000              1.0000000
D    1   1.00
      0.3130000              1.0000000
F    1   1.00
      0.8000000              1.0000000
****
}

set {
opt_type min
reference rhf
freeze_core true
e_convergence 10
d_convergence 10
ensure_bt_convergence true
dft_spherical_points 590
dft_radial_points 99
}

e = energy('b3lyp')

print_out('Grab this energy {0}'.format(e))
--------------------------------------------------------------------------

    Molecular point group: c1

    Geometry (in Bohr), charge = 0, multiplicity = 1:

       Center              X                  Y                   Z               Mass
    ------------   -----------------  -----------------  -----------------  -----------------
         C           -0.006540342259    -0.003703378881     0.000003014997    12.000000000000
         C            0.002259833941    -0.001589631581    -2.481769222603    12.000000000000
         H           -1.233997136959    -1.240459177681    -3.539275768403     1.007825032230
         H            1.249728843941     1.243648791319    -3.526239137503     1.007825032230
         C            0.001821253041     0.004114902819     2.481765354197    12.000000000000
         H            1.252722511141    -1.232514552181     3.522703384297     1.007825032230
         H           -1.239172286859     1.243352464419     3.542821682997     1.007825032230

  Charge       = 0
  Multiplicity = 1
  Basis Set: ANONYMOUSE263C0C9
    Blend: 6-31G_2DFP_
  Basis Set: (ANONYMOUSE263C0C9 AUX)
    Blend: DEF2-UNIVERSAL-JKFIT

    Orbital Energies [Eh]
    ---------------------

    Doubly Occupied:

       1A    -10.201509     2A    -10.184656     3A    -10.184626
       4A     -0.784871     5A     -0.699878     6A     -0.519287
       7A     -0.446530     8A     -0.441009     9A     -0.440896
      10A     -0.263656    11A     -0.263305

  @DF-RKS Final Energy:  -116.66711227795101

   => Energetics <=

    Nuclear Repulsion Energy =             59.0065554865391420
    One-Electron Energy =                -272.1738283653846793
    Two-Electron Energy =                 110.8316297243146664
    DFT Exchange-Correlation Energy =     -14.3314691234201259
    Empirical Dispersion Energy =           0.0000000000000000
    VV10 Nonlocal Energy =                  0.0000000000000000
    Total Energy =                       -116.6671122779510057

  Dipole Moment: [D]
     X:     0.0051      Y:     0.0023      Z:     0.0001     Total:     0.0056

*** Psi4 exiting successfully. Buy a developer a beer!
