                               Psi4 1.4a2.dev629

  ==> Input File <==

--------------------------------------------------------------------------
import os
memory 14 GB

molecule {
 X   -1.4140367565   -1.4143903635   -0.0000000000
 C   -0.0019180676   -0.0000019231    0.0000000000
 X    1.4143844795   -1.4140426405   -0.0000000000
 C    0.0019929454    0.0023521951   -2.4809651381
 H   -1.2389785783   -1.2390792003   -3.5329489683
 H    1.2377699198    1.2372831935   -3.5325274372
 C    0.0019932167   -0.0023512031    2.4809651423
 H    1.2375726952   -1.2374777599    3.5325298389
 H   -1.2387798542    1.2392805818    3.5329465624
units bohr
}

basis {

assign 6-31g_2dfp_

[ 6-31g_2dfp_ ]
spherical

!----------------------------------------------------------------------
! Basis Set Exchange
! Version v0.8.13
! https://www.basissetexchange.org
!----------------------------------------------------------------------
!   Basis set: 6-31G(2df,p)
! Description: 6-31G(2df,p)
!        Role: orbital
!     Version: 0  (Data from the original Basis Set Exchange)
!----------------------------------------------------------------------

****
H     0
S    3   1.00
     18.7311370              0.03349460
      2.8253937              0.23472695
      0.6401217              0.81375733
S    1   1.00
      0.1612778              1.00000000
P    1   1.00
      1.5000000              1.0000000
P    1   1.00
      0.3750000              1.0000000
****
C     0
S    6   1.00
   3047.5249000              0.0018347
    457.3695100              0.0140373
    103.9486900              0.0688426
     29.2101550              0.2321844
      9.2866630              0.4679413
      3.1639270              0.3623120
SP   3   1.00
      7.8682724             -0.1193324              0.0689991
      1.8812885             -0.1608542              0.3164240
      0.5442493              1.1434564              0.7443083
SP   1   1.00
      0.1687144              1.0000000              1.0000000
D    1   1.00
      1.2520000              1.0000000
D    1   1.00
      0.3130000              1.0000000
F    1   1.00
      0.8000000              1.0000000
****
}

set {
opt_type min
reference rhf
freeze_core true
e_convergence 10
d_convergence 10
ensure_bt_convergence true
dft_spherical_points 590
dft_radial_points 99
}

e = energy('b3lyp')

print_out('Grab this energy {0}'.format(e))
--------------------------------------------------------------------------

    Molecular point group: c1

    Geometry (in Bohr), charge = 0, multiplicity = 1:

       Center              X                  Y                   Z               Mass
    ------------   -----------------  -----------------  -----------------  -----------------
         C           -0.002477190401    -0.000001815565    -0.000000001153    12.000000000000
         C            0.001433822599     0.002352302635    -2.480965139253    12.000000000000
         H           -1.239537701101    -1.239079092765    -3.532948969453     1.007825032230
         H            1.237210796999     1.237283301035    -3.532527438353     1.007825032230
         C            0.001434093899    -0.002351095565     2.480965141147    12.000000000000
         H            1.237013572399    -1.237477652365     3.532529837747     1.007825032230
         H           -1.239338977001     1.239280689335     3.532946561247     1.007825032230

  Charge       = 0
  Multiplicity = 1
  Basis Set: ANONYMOUSB005F674
    Blend: 6-31G_2DFP_
  Basis Set: (ANONYMOUSB005F674 AUX)
    Blend: DEF2-UNIVERSAL-JKFIT

    Orbital Energies [Eh]
    ---------------------

    Doubly Occupied:

       1A    -10.201434     2A    -10.184169     3A    -10.184138
       4A     -0.785073     5A     -0.700243     6A     -0.520012
       7A     -0.447159     8A     -0.441160     9A     -0.441113
      10A     -0.263547    11A     -0.263545

  @DF-RKS Final Energy:  -116.66711005988724

   => Energetics <=

    Nuclear Repulsion Energy =             59.0488019206206545
    One-Electron Energy =                -272.2535038557010694
    Two-Electron Energy =                 110.8720293393792105
    DFT Exchange-Correlation Energy =     -14.3344374641860348
    Empirical Dispersion Energy =           0.0000000000000000
    VV10 Nonlocal Energy =                  0.0000000000000000
    Total Energy =                       -116.6671100598872357

  Dipole Moment: [D]
     X:     0.0027      Y:     0.0000      Z:     0.0000     Total:     0.0027

*** Psi4 exiting successfully. Buy a developer a beer!
