                               Psi4 1.4a2.dev629

  ==> Input File <==

--------------------------------------------------------------------------
import os
memory 14 GB

molecule {
 X   -1.4226929026   -1.4057342174   -0.0000000000
 C   -0.0026459646   -0.0015827848    0.0000006715
 X    1.4159229494   -1.4125041706    0.0000000000
 C   -0.0004894796   -0.0009724213   -2.4817870565
 H   -1.2407526851   -1.2426925014   -3.5338609100
 H    1.2421256797    1.2422952044   -3.5317248298
 C    0.0026459874   -0.0031650852    2.4817832651
 H    1.2482189889   -1.2406571545    3.5412783996
 H   -1.2423325734    1.2365860108    3.5243104601
units bohr
}

basis {

assign 6-31g_2dfp_

[ 6-31g_2dfp_ ]
spherical

!----------------------------------------------------------------------
! Basis Set Exchange
! Version v0.8.13
! https://www.basissetexchange.org
!----------------------------------------------------------------------
!   Basis set: 6-31G(2df,p)
! Description: 6-31G(2df,p)
!        Role: orbital
!     Version: 0  (Data from the original Basis Set Exchange)
!----------------------------------------------------------------------

****
H     0
S    3   1.00
     18.7311370              0.03349460
      2.8253937              0.23472695
      0.6401217              0.81375733
S    1   1.00
      0.1612778              1.00000000
P    1   1.00
      1.5000000              1.0000000
P    1   1.00
      0.3750000              1.0000000
****
C     0
S    6   1.00
   3047.5249000              0.0018347
    457.3695100              0.0140373
    103.9486900              0.0688426
     29.2101550              0.2321844
      9.2866630              0.4679413
      3.1639270              0.3623120
SP   3   1.00
      7.8682724             -0.1193324              0.0689991
      1.8812885             -0.1608542              0.3164240
      0.5442493              1.1434564              0.7443083
SP   1   1.00
      0.1687144              1.0000000              1.0000000
D    1   1.00
      1.2520000              1.0000000
D    1   1.00
      0.3130000              1.0000000
F    1   1.00
      0.8000000              1.0000000
****
}

set {
opt_type min
reference rhf
freeze_core true
e_convergence 10
d_convergence 10
ensure_bt_convergence true
dft_spherical_points 590
dft_radial_points 99
}

e = energy('b3lyp')

print_out('Grab this energy {0}'.format(e))
--------------------------------------------------------------------------

    Molecular point group: c1

    Geometry (in Bohr), charge = 0, multiplicity = 1:

       Center              X                  Y                   Z               Mass
    ------------   -----------------  -----------------  -----------------  -----------------
         C           -0.002682004739     0.000244457926     0.000001528192    12.000000000000
         C           -0.000525519739     0.000854821426    -2.481786199808    12.000000000000
         H           -1.240788725239    -1.240865258674    -3.533860053308     1.007825032230
         H            1.242089639561     1.244122447126    -3.531723973108     1.007825032230
         C            0.002609947261    -0.001337842474     2.481784121792    12.000000000000
         H            1.248182948761    -1.238829911774     3.541279256292     1.007825032230
         H           -1.242368613539     1.238413253526     3.524311316792     1.007825032230

  Charge       = 0
  Multiplicity = 1
  Basis Set: ANONYMOUSE46F7E4D
    Blend: 6-31G_2DFP_
  Basis Set: (ANONYMOUSE46F7E4D AUX)
    Blend: DEF2-UNIVERSAL-JKFIT

    Orbital Energies [Eh]
    ---------------------

    Doubly Occupied:

       1A    -10.201510     2A    -10.184656     3A    -10.184626
       4A     -0.784871     5A     -0.699880     6A     -0.519286
       7A     -0.446531     8A     -0.440992     9A     -0.440913
      10A     -0.263604    11A     -0.263357

  @DF-RKS Final Energy:  -116.66711217786153

   => Energetics <=

    Nuclear Repulsion Energy =             59.0064790456344994
    One-Electron Energy =                -272.1736676483376414
    Two-Electron Energy =                 110.8315449716809837
    DFT Exchange-Correlation Energy =     -14.3314685468393783
    Empirical Dispersion Energy =           0.0000000000000000
    VV10 Nonlocal Energy =                  0.0000000000000000
    Total Energy =                       -116.6671121778615259

  Dipole Moment: [D]
     X:     0.0015      Y:     0.0002      Z:     0.0000     Total:     0.0015

*** Psi4 exiting successfully. Buy a developer a beer!
