                               Psi4 1.4a2.dev629

  ==> Input File <==

--------------------------------------------------------------------------
import os
memory 14 GB

molecule {
 X   -1.4155742538   -1.4128528662    0.0000000000
 C    0.0019284301   -0.0030432836   -0.0000005171
 X    1.4152310080   -1.4131961120    0.0000000000
 C   -0.0023753457   -0.0034485715   -2.4817854923
 H   -1.2390831199   -1.2423335416   -3.5320945489
 H    1.2408934976    1.2455567423   -3.5334756154
 C   -0.0016057586    0.0012664558    2.4817819645
 H    1.2404755125   -1.2439366961    3.5325045279
 H   -1.2398899703    1.2435607529    3.5330696812
units bohr
}

basis {

assign 6-31g_2dfp_

[ 6-31g_2dfp_ ]
spherical

!----------------------------------------------------------------------
! Basis Set Exchange
! Version v0.8.13
! https://www.basissetexchange.org
!----------------------------------------------------------------------
!   Basis set: 6-31G(2df,p)
! Description: 6-31G(2df,p)
!        Role: orbital
!     Version: 0  (Data from the original Basis Set Exchange)
!----------------------------------------------------------------------

****
H     0
S    3   1.00
     18.7311370              0.03349460
      2.8253937              0.23472695
      0.6401217              0.81375733
S    1   1.00
      0.1612778              1.00000000
P    1   1.00
      1.5000000              1.0000000
P    1   1.00
      0.3750000              1.0000000
****
C     0
S    6   1.00
   3047.5249000              0.0018347
    457.3695100              0.0140373
    103.9486900              0.0688426
     29.2101550              0.2321844
      9.2866630              0.4679413
      3.1639270              0.3623120
SP   3   1.00
      7.8682724             -0.1193324              0.0689991
      1.8812885             -0.1608542              0.3164240
      0.5442493              1.1434564              0.7443083
SP   1   1.00
      0.1687144              1.0000000              1.0000000
D    1   1.00
      1.2520000              1.0000000
D    1   1.00
      0.3130000              1.0000000
F    1   1.00
      0.8000000              1.0000000
****
}

set {
opt_type min
reference rhf
freeze_core true
e_convergence 10
d_convergence 10
ensure_bt_convergence true
dft_spherical_points 590
dft_radial_points 99
}

e = energy('b3lyp')

print_out('Grab this energy {0}'.format(e))
--------------------------------------------------------------------------

    Molecular point group: c1

    Geometry (in Bohr), charge = 0, multiplicity = 1:

       Center              X                  Y                   Z               Mass
    ------------   -----------------  -----------------  -----------------  -----------------
         C            0.002483431368    -0.001548571861     0.000000593590    12.000000000000
         C           -0.001820344432    -0.001953859761    -2.481784381610    12.000000000000
         H           -1.238528118632    -1.240838829861    -3.532093438210     1.007825032230
         H            1.241448498868     1.247051454039    -3.533474504710     1.007825032230
         C           -0.001050757332     0.002761167539     2.481783075190    12.000000000000
         H            1.241030513768    -1.242441984361     3.532505638590     1.007825032230
         H           -1.239334969032     1.245055464639     3.533070791890     1.007825032230

  Charge       = 0
  Multiplicity = 1
  Basis Set: ANONYMOUSFBEE143B
    Blend: 6-31G_2DFP_
  Basis Set: (ANONYMOUSFBEE143B AUX)
    Blend: DEF2-UNIVERSAL-JKFIT

    Orbital Energies [Eh]
    ---------------------

    Doubly Occupied:

       1A    -10.201510     2A    -10.184657     3A    -10.184627
       4A     -0.784870     5A     -0.699880     6A     -0.519295
       7A     -0.446589     8A     -0.440953     9A     -0.440891
      10A     -0.263648    11A     -0.263314

  @DF-RKS Final Energy:  -116.66710907898150

   => Energetics <=

    Nuclear Repulsion Energy =             59.0064919846094327
    One-Electron Energy =                -272.1736719461736129
    Two-Electron Energy =                 110.8315416053508073
    DFT Exchange-Correlation Energy =     -14.3314707227681168
    Empirical Dispersion Energy =           0.0000000000000000
    VV10 Nonlocal Energy =                  0.0000000000000000
    Total Energy =                       -116.6671090789814969

  Dipole Moment: [D]
     X:    -0.0027      Y:     0.0009      Z:     0.0000     Total:     0.0029

*** Psi4 exiting successfully. Buy a developer a beer!
