                               Psi4 1.4a2.dev629

  ==> Input File <==

--------------------------------------------------------------------------
import os
memory 14 GB

molecule {
 X   -1.4141972333   -1.4142298867   -0.0000000000
 C    0.0000052653    0.0007304245   -0.0016349896
 X    1.4141991932   -1.4142279268    0.0000000000
 C    0.0012451283   -0.0012409395   -2.4827016966
 H   -1.2460604494   -1.2451494846   -3.5319240246
 H    1.2451763724    1.2460417515   -3.5319144773
 C   -0.0012404709   -0.0012374460    2.4808735979
 H    1.2387715728   -1.2378717206    3.5336604402
 H   -1.2378993785    1.2387581083    3.5336411500
units bohr
}

basis {

assign 6-31g_2dfp_

[ 6-31g_2dfp_ ]
spherical

!----------------------------------------------------------------------
! Basis Set Exchange
! Version v0.8.13
! https://www.basissetexchange.org
!----------------------------------------------------------------------
!   Basis set: 6-31G(2df,p)
! Description: 6-31G(2df,p)
!        Role: orbital
!     Version: 0  (Data from the original Basis Set Exchange)
!----------------------------------------------------------------------

****
H     0
S    3   1.00
     18.7311370              0.03349460
      2.8253937              0.23472695
      0.6401217              0.81375733
S    1   1.00
      0.1612778              1.00000000
P    1   1.00
      1.5000000              1.0000000
P    1   1.00
      0.3750000              1.0000000
****
C     0
S    6   1.00
   3047.5249000              0.0018347
    457.3695100              0.0140373
    103.9486900              0.0688426
     29.2101550              0.2321844
      9.2866630              0.4679413
      3.1639270              0.3623120
SP   3   1.00
      7.8682724             -0.1193324              0.0689991
      1.8812885             -0.1608542              0.3164240
      0.5442493              1.1434564              0.7443083
SP   1   1.00
      0.1687144              1.0000000              1.0000000
D    1   1.00
      1.2520000              1.0000000
D    1   1.00
      0.3130000              1.0000000
F    1   1.00
      0.8000000              1.0000000
****
}

set {
opt_type min
reference rhf
freeze_core true
e_convergence 10
d_convergence 10
ensure_bt_convergence true
dft_spherical_points 590
dft_radial_points 99
}

e = energy('b3lyp')

print_out('Grab this energy {0}'.format(e))
--------------------------------------------------------------------------

    Molecular point group: c1

    Geometry (in Bohr), charge = 0, multiplicity = 1:

       Center              X                  Y                   Z               Mass
    ------------   -----------------  -----------------  -----------------  -----------------
         C            0.000002589976     0.001209623509    -0.000684061891    12.000000000000
         C            0.001242452976    -0.000761740491    -2.481750768891    12.000000000000
         H           -1.246063124724    -1.244670285591    -3.530973096891     1.007825032230
         H            1.245173697076     1.246520950509    -3.530963549591     1.007825032230
         C           -0.001243146224    -0.000758246991     2.481824525609    12.000000000000
         H            1.238768897476    -1.237392521591     3.534611367909     1.007825032230
         H           -1.237902053824     1.239237307309     3.534592077709     1.007825032230

  Charge       = 0
  Multiplicity = 1
  Basis Set: ANONYMOUS351D1353
    Blend: 6-31G_2DFP_
  Basis Set: (ANONYMOUS351D1353 AUX)
    Blend: DEF2-UNIVERSAL-JKFIT

    Orbital Energies [Eh]
    ---------------------

    Doubly Occupied:

       1A    -10.201510     2A    -10.184968     3A    -10.184314
       4A     -0.784870     5A     -0.699881     6A     -0.519292
       7A     -0.446527     8A     -0.440953     9A     -0.440952
      10A     -0.263597    11A     -0.263365

  @DF-RKS Final Energy:  -116.66711019614689

   => Energetics <=

    Nuclear Repulsion Energy =             59.0064750985707960
    One-Electron Energy =                -272.1736504333105700
    Two-Electron Energy =                 110.8315346947615723
    DFT Exchange-Correlation Energy =     -14.3314695561687007
    Empirical Dispersion Energy =           0.0000000000000000
    VV10 Nonlocal Energy =                  0.0000000000000000
    Total Energy =                       -116.6671101961468935

  Dipole Moment: [D]
     X:    -0.0000      Y:     0.0023      Z:     0.0016     Total:     0.0027

*** Psi4 exiting successfully. Buy a developer a beer!
