                               Psi4 1.4a2.dev629

  ==> Input File <==

--------------------------------------------------------------------------
import os
memory 14 GB

molecule {
 X   -1.4106148267   -1.4178122933    0.0000000000
 C    0.0093427580   -0.0000155262   -0.0000000033
 X    1.4178468568   -1.4105802632   -0.0000000000
 C    0.0007633536    0.0028455818   -2.4878158548
 H   -1.2481445863   -1.2376012467   -3.5334838826
 H    1.2390975160    1.2414076789   -3.5500262399
 C    0.0007573497   -0.0028605831    2.4878158458
 H    1.2349793500   -1.2455272370    3.5500183262
 H   -1.2440277711    1.2417167688    3.5334918086
units bohr
}

basis {

assign 6-31g_2dfp_

[ 6-31g_2dfp_ ]
spherical

!----------------------------------------------------------------------
! Basis Set Exchange
! Version v0.8.13
! https://www.basissetexchange.org
!----------------------------------------------------------------------
!   Basis set: 6-31G(2df,p)
! Description: 6-31G(2df,p)
!        Role: orbital
!     Version: 0  (Data from the original Basis Set Exchange)
!----------------------------------------------------------------------

****
H     0
S    3   1.00
     18.7311370              0.03349460
      2.8253937              0.23472695
      0.6401217              0.81375733
S    1   1.00
      0.1612778              1.00000000
P    1   1.00
      1.5000000              1.0000000
P    1   1.00
      0.3750000              1.0000000
****
C     0
S    6   1.00
   3047.5249000              0.0018347
    457.3695100              0.0140373
    103.9486900              0.0688426
     29.2101550              0.2321844
      9.2866630              0.4679413
      3.1639270              0.3623120
SP   3   1.00
      7.8682724             -0.1193324              0.0689991
      1.8812885             -0.1608542              0.3164240
      0.5442493              1.1434564              0.7443083
SP   1   1.00
      0.1687144              1.0000000              1.0000000
D    1   1.00
      1.2520000              1.0000000
D    1   1.00
      0.3130000              1.0000000
F    1   1.00
      0.8000000              1.0000000
****
}

set {
opt_type min
reference rhf
freeze_core true
e_convergence 10
d_convergence 10
ensure_bt_convergence true
dft_spherical_points 590
dft_radial_points 99
}

e = energy('b3lyp')

print_out('Grab this energy {0}'.format(e))
--------------------------------------------------------------------------

    Molecular point group: c1

    Geometry (in Bohr), charge = 0, multiplicity = 1:

       Center              X                  Y                   Z               Mass
    ------------   -----------------  -----------------  -----------------  -----------------
         C            0.006541838569    -0.000006273501     0.000000000077    12.000000000000
         C           -0.002037565831     0.002854834499    -2.487815851423    12.000000000000
         H           -1.250945505731    -1.237591994001    -3.533483879223     1.007825032230
         H            1.236296596569     1.241416931599    -3.550026236523     1.007825032230
         C           -0.002043569731    -0.002851330401     2.487815849177    12.000000000000
         H            1.232178430569    -1.245517984301     3.550018329577     1.007825032230
         H           -1.246828690531     1.241726021499     3.533491811977     1.007825032230

  Charge       = 0
  Multiplicity = 1
  Basis Set: ANONYMOUS55307A06
    Blend: 6-31G_2DFP_
  Basis Set: (ANONYMOUS55307A06 AUX)
    Blend: DEF2-UNIVERSAL-JKFIT

    Orbital Energies [Eh]
    ---------------------

    Doubly Occupied:

       1A    -10.202586     2A    -10.185458     3A    -10.185426
       4A     -0.783983     5A     -0.699375     6A     -0.519627
       7A     -0.446389     8A     -0.440431     9A     -0.440430
      10A     -0.263208    11A     -0.263205

  @DF-RKS Final Energy:  -116.66693586339086

   => Energetics <=

    Nuclear Repulsion Energy =             58.8907093610589882
    One-Electron Energy =                -271.9449023267542316
    Two-Electron Energy =                 110.7145093717775524
    DFT Exchange-Correlation Energy =     -14.3272522694731634
    Empirical Dispersion Energy =           0.0000000000000000
    VV10 Nonlocal Energy =                  0.0000000000000000
    Total Energy =                       -116.6669358633908615

  Dipole Moment: [D]
     X:    -0.0051      Y:     0.0000      Z:     0.0000     Total:     0.0051

*** Psi4 exiting successfully. Buy a developer a beer!
