                               Psi4 1.4a2.dev629

  ==> Input File <==

--------------------------------------------------------------------------
import os
memory 14 GB

molecule {
 X   -1.4106330067   -1.4177941133    0.0000000000
 C    0.0093235178   -0.0000176831    0.0060729690
 X    1.4178543704   -1.4105727496   -0.0000000000
 C    0.0007676669    0.0028422721   -2.4800222577
 H   -1.2492588610   -1.2387277761   -3.5268921223
 H    1.2402213970    1.2425267050   -3.5434305543
 C    0.0007457901   -0.0028567710    2.4835223788
 H    1.2346476855   -1.2451816213    3.5386457458
 H   -1.2436685600    1.2413546172    3.5221038405
units bohr
}

basis {

assign 6-31g_2dfp_

[ 6-31g_2dfp_ ]
spherical

!----------------------------------------------------------------------
! Basis Set Exchange
! Version v0.8.13
! https://www.basissetexchange.org
!----------------------------------------------------------------------
!   Basis set: 6-31G(2df,p)
! Description: 6-31G(2df,p)
!        Role: orbital
!     Version: 0  (Data from the original Basis Set Exchange)
!----------------------------------------------------------------------

****
H     0
S    3   1.00
     18.7311370              0.03349460
      2.8253937              0.23472695
      0.6401217              0.81375733
S    1   1.00
      0.1612778              1.00000000
P    1   1.00
      1.5000000              1.0000000
P    1   1.00
      0.3750000              1.0000000
****
C     0
S    6   1.00
   3047.5249000              0.0018347
    457.3695100              0.0140373
    103.9486900              0.0688426
     29.2101550              0.2321844
      9.2866630              0.4679413
      3.1639270              0.3623120
SP   3   1.00
      7.8682724             -0.1193324              0.0689991
      1.8812885             -0.1608542              0.3164240
      0.5442493              1.1434564              0.7443083
SP   1   1.00
      0.1687144              1.0000000              1.0000000
D    1   1.00
      1.2520000              1.0000000
D    1   1.00
      0.3130000              1.0000000
F    1   1.00
      0.8000000              1.0000000
****
}

set {
opt_type min
reference rhf
freeze_core true
e_convergence 10
d_convergence 10
ensure_bt_convergence true
dft_spherical_points 590
dft_radial_points 99
}

e = energy('b3lyp')

print_out('Grab this energy {0}'.format(e))
--------------------------------------------------------------------------

    Molecular point group: c1

    Geometry (in Bohr), charge = 0, multiplicity = 1:

       Center              X                  Y                   Z               Mass
    ------------   -----------------  -----------------  -----------------  -----------------
         C            0.006529602747    -0.000007329230     0.003444298914    12.000000000000
         C           -0.002026248153     0.002852625970    -2.482650927786    12.000000000000
         H           -1.252052776053    -1.238717422230    -3.529520792386     1.007825032230
         H            1.237427481947     1.242537058870    -3.546059224386     1.007825032230
         C           -0.002048124953    -0.002846417130     2.480893708714    12.000000000000
         H            1.231853770447    -1.245171267430     3.536017075714     1.007825032230
         H           -1.246462475053     1.241364971070     3.519475170414     1.007825032230

  Charge       = 0
  Multiplicity = 1
  Basis Set: ANONYMOUSAC4FB34C
    Blend: 6-31G_2DFP_
  Basis Set: (ANONYMOUSAC4FB34C AUX)
    Blend: DEF2-UNIVERSAL-JKFIT

    Orbital Energies [Eh]
    ---------------------

    Doubly Occupied:

       1A    -10.201509     2A    -10.185103     3A    -10.184179
       4A     -0.784882     5A     -0.699868     6A     -0.519287
       7A     -0.446529     8A     -0.441799     9A     -0.440110
      10A     -0.264017    11A     -0.262945

  @DF-RKS Final Energy:  -116.66709804272885

   => Energetics <=

    Nuclear Repulsion Energy =             59.0066490628382780
    One-Electron Energy =                -272.1739712769893913
    Two-Electron Energy =                 110.8316989999791957
    DFT Exchange-Correlation Energy =     -14.3314748285569387
    Empirical Dispersion Energy =           0.0000000000000000
    VV10 Nonlocal Energy =                  0.0000000000000000
    Total Energy =                       -116.6670980427288526

  Dipole Moment: [D]
     X:    -0.0051      Y:    -0.0000      Z:     0.0074     Total:     0.0090

*** Psi4 exiting successfully. Buy a developer a beer!
