                               Psi4 1.4a2.dev629

  ==> Input File <==

--------------------------------------------------------------------------
import os
memory 14 GB

molecule {
 X   -1.4113044150   -1.4171227050    0.0000000000
 C    0.0026461836   -0.0056604087   -0.0000001413
 X    1.4180727607   -1.4103543593    0.0000000000
 C   -0.0008608628   -0.0018014821   -2.4817834033
 H   -1.2471109812   -1.2374650376   -3.5347223136
 H    1.2445733952    1.2386906596   -3.5308520556
 C   -0.0012942177    0.0003906482    2.4817780938
 H    1.2396297009   -1.2394855487    3.5273151946
 H   -1.2443515636    1.2443811136    3.5382646253
units bohr
}

basis {

assign 6-31g_2dfp_

[ 6-31g_2dfp_ ]
spherical

!----------------------------------------------------------------------
! Basis Set Exchange
! Version v0.8.13
! https://www.basissetexchange.org
!----------------------------------------------------------------------
!   Basis set: 6-31G(2df,p)
! Description: 6-31G(2df,p)
!        Role: orbital
!     Version: 0  (Data from the original Basis Set Exchange)
!----------------------------------------------------------------------

****
H     0
S    3   1.00
     18.7311370              0.03349460
      2.8253937              0.23472695
      0.6401217              0.81375733
S    1   1.00
      0.1612778              1.00000000
P    1   1.00
      1.5000000              1.0000000
P    1   1.00
      0.3750000              1.0000000
****
C     0
S    6   1.00
   3047.5249000              0.0018347
    457.3695100              0.0140373
    103.9486900              0.0688426
     29.2101550              0.2321844
      9.2866630              0.4679413
      3.1639270              0.3623120
SP   3   1.00
      7.8682724             -0.1193324              0.0689991
      1.8812885             -0.1608542              0.3164240
      0.5442493              1.1434564              0.7443083
SP   1   1.00
      0.1687144              1.0000000              1.0000000
D    1   1.00
      1.2520000              1.0000000
D    1   1.00
      0.3130000              1.0000000
F    1   1.00
      0.8000000              1.0000000
****
}

set {
opt_type min
reference rhf
freeze_core true
e_convergence 10
d_convergence 10
ensure_bt_convergence true
dft_spherical_points 590
dft_radial_points 99
}

e = energy('b3lyp')

print_out('Grab this energy {0}'.format(e))
--------------------------------------------------------------------------

    Molecular point group: c1

    Geometry (in Bohr), charge = 0, multiplicity = 1:

       Center              X                  Y                   Z               Mass
    ------------   -----------------  -----------------  -----------------  -----------------
         C            0.002681731207    -0.003694801149     0.000001355435    12.000000000000
         C           -0.000825315193     0.000164125451    -2.481781906565    12.000000000000
         H           -1.247075433593    -1.235499430049    -3.534720816865     1.007825032230
         H            1.244608942807     1.240656267151    -3.530850558865     1.007825032230
         C           -0.001258670093     0.002356255751     2.481779590535    12.000000000000
         H            1.239665248507    -1.237519941149     3.527316691335     1.007825032230
         H           -1.244316015993     1.246346721151     3.538266122035     1.007825032230

  Charge       = 0
  Multiplicity = 1
  Basis Set: ANONYMOUS5B94C567
    Blend: 6-31G_2DFP_
  Basis Set: (ANONYMOUS5B94C567 AUX)
    Blend: DEF2-UNIVERSAL-JKFIT

    Orbital Energies [Eh]
    ---------------------

    Doubly Occupied:

       1A    -10.201509     2A    -10.184656     3A    -10.184626
       4A     -0.784871     5A     -0.699880     6A     -0.519287
       7A     -0.446530     8A     -0.441008     9A     -0.440896
      10A     -0.263654    11A     -0.263307

  @DF-RKS Final Energy:  -116.66710953982532

   => Energetics <=

    Nuclear Repulsion Energy =             59.0065006330240891
    One-Electron Energy =                -272.1737074742483173
    Two-Electron Energy =                 110.8315671702685421
    DFT Exchange-Correlation Energy =     -14.3314698688696165
    Empirical Dispersion Energy =           0.0000000000000000
    VV10 Nonlocal Energy =                  0.0000000000000000
    Total Energy =                       -116.6671095398253186

  Dipole Moment: [D]
     X:    -0.0015      Y:     0.0023      Z:    -0.0000     Total:     0.0028

*** Psi4 exiting successfully. Buy a developer a beer!
