                               Psi4 1.4a2.dev629

  ==> Input File <==

--------------------------------------------------------------------------
import os
memory 14 GB

molecule {
 X   -1.4142276700   -1.4141994500   -0.0000000000
 C    0.0007339214   -0.0000001995   -0.0000000001
 X    1.4141976517   -1.4142294683   -0.0000000000
 C   -0.0012365800    0.0012408217   -2.4809682447
 H   -1.2378250005   -1.2387226115   -3.5327496529
 H    1.2387094774    1.2378479997   -3.5327382697
 C   -0.0012364594   -0.0012403824    2.4809682451
 H    1.2387266595   -1.2378301297    3.5327386498
 H   -1.2378420000    1.2387063000    3.5327492725
units bohr
}

basis {

assign 6-31g_2dfp_

[ 6-31g_2dfp_ ]
spherical

!----------------------------------------------------------------------
! Basis Set Exchange
! Version v0.8.13
! https://www.basissetexchange.org
!----------------------------------------------------------------------
!   Basis set: 6-31G(2df,p)
! Description: 6-31G(2df,p)
!        Role: orbital
!     Version: 0  (Data from the original Basis Set Exchange)
!----------------------------------------------------------------------

****
H     0
S    3   1.00
     18.7311370              0.03349460
      2.8253937              0.23472695
      0.6401217              0.81375733
S    1   1.00
      0.1612778              1.00000000
P    1   1.00
      1.5000000              1.0000000
P    1   1.00
      0.3750000              1.0000000
****
C     0
S    6   1.00
   3047.5249000              0.0018347
    457.3695100              0.0140373
    103.9486900              0.0688426
     29.2101550              0.2321844
      9.2866630              0.4679413
      3.1639270              0.3623120
SP   3   1.00
      7.8682724             -0.1193324              0.0689991
      1.8812885             -0.1608542              0.3164240
      0.5442493              1.1434564              0.7443083
SP   1   1.00
      0.1687144              1.0000000              1.0000000
D    1   1.00
      1.2520000              1.0000000
D    1   1.00
      0.3130000              1.0000000
F    1   1.00
      0.8000000              1.0000000
****
}

set {
opt_type min
reference rhf
freeze_core true
e_convergence 10
d_convergence 10
ensure_bt_convergence true
dft_spherical_points 590
dft_radial_points 99
}

e = energy('b3lyp')

print_out('Grab this energy {0}'.format(e))
--------------------------------------------------------------------------

    Molecular point group: c1

    Geometry (in Bohr), charge = 0, multiplicity = 1:

       Center              X                  Y                   Z               Mass
    ------------   -----------------  -----------------  -----------------  -----------------
         C            0.001210709213    -0.000000310620    -0.000000000182    12.000000000000
         C           -0.000759792187     0.001240710580    -2.480968244782    12.000000000000
         H           -1.237348212687    -1.238722722620    -3.532749652982     1.007825032230
         H            1.239186265213     1.237847888580    -3.532738269782     1.007825032230
         C           -0.000759671587    -0.001240493520     2.480968245018    12.000000000000
         H            1.239203447313    -1.237830240820     3.532738649718     1.007825032230
         H           -1.237365212187     1.238706188880     3.532749272418     1.007825032230

  Charge       = 0
  Multiplicity = 1
  Basis Set: ANONYMOUS799D722B
    Blend: 6-31G_2DFP_
  Basis Set: (ANONYMOUS799D722B AUX)
    Blend: DEF2-UNIVERSAL-JKFIT

    Orbital Energies [Eh]
    ---------------------

    Doubly Occupied:

       1A    -10.201434     2A    -10.184169     3A    -10.184138
       4A     -0.785073     5A     -0.700242     6A     -0.520005
       7A     -0.447106     8A     -0.441164     9A     -0.441164
      10A     -0.263546    11A     -0.263546

  @DF-RKS Final Energy:  -116.66712078660146

   => Energetics <=

    Nuclear Repulsion Energy =             59.0487469390547943
    One-Electron Energy =                -272.2534270214022172
    Two-Electron Energy =                 110.8719934001716751
    DFT Exchange-Correlation Energy =     -14.3344341044257302
    Empirical Dispersion Energy =           0.0000000000000000
    VV10 Nonlocal Energy =                  0.0000000000000000
    Total Energy =                       -116.6671207866014583

  Dipole Moment: [D]
     X:     0.0022      Y:     0.0000      Z:    -0.0000     Total:     0.0022

*** Psi4 exiting successfully. Buy a developer a beer!
