                               Psi4 1.4a2.dev629

  ==> Input File <==

--------------------------------------------------------------------------
import os
memory 14 GB

molecule {
 C   -0.0055033448   -1.3546221225   -0.0001634506
 C   -0.0194600889    1.4605279039   -0.0004002632
 H    1.9283388821   -2.1111310744    0.0025772143
 H   -0.9470801396   -2.1156863302    1.6711506173
 H   -0.9418319654   -2.1153400746   -1.6736082565
 H    0.1236841860    2.5119699962   -1.7496289286
 H    0.1329050470    2.5125914337    1.7500730673
units bohr
0 2
}

basis {

assign 6-31g_2dfp_

[ 6-31g_2dfp_ ]

spherical

!----------------------------------------------------------------------
! Basis Set Exchange
! Version v0.8.13
! https://www.basissetexchange.org
!----------------------------------------------------------------------
!   Basis set: 6-31G(2df,p)
! Description: 6-31G(2df,p)
!        Role: orbital
!     Version: 0  (Data from the original Basis Set Exchange)
!----------------------------------------------------------------------

****
H     0
S    3   1.00
     18.7311370              0.03349460
      2.8253937              0.23472695
      0.6401217              0.81375733
S    1   1.00
      0.1612778              1.00000000
P    1   1.00
      1.5000000              1.0000000
P    1   1.00
      0.3750000              1.0000000
****
B     0
S    6   1.00
   2068.8823000              0.0018663
    310.6495700              0.0142515
     70.6830330              0.0695516
     19.8610800              0.2325729
      6.2993048              0.4670787
      2.1270270              0.3634314
SP   3   1.00
      4.7279710             -0.1303938              0.0745976
      1.1903377             -0.1307889              0.3078467
      0.3594117              1.1309444              0.7434568
SP   1   1.00
      0.1267512              1.0000000              1.0000000
D    1   1.00
      0.8020000              1.0000000
D    1   1.00
      0.2005000              1.0000000
F    1   1.00
      0.5000000              1.0000000
****
C     0
S    6   1.00
   3047.5249000              0.0018347
    457.3695100              0.0140373
    103.9486900              0.0688426
     29.2101550              0.2321844
      9.2866630              0.4679413
      3.1639270              0.3623120
SP   3   1.00
      7.8682724             -0.1193324              0.0689991
      1.8812885             -0.1608542              0.3164240
      0.5442493              1.1434564              0.7443083
SP   1   1.00
      0.1687144              1.0000000              1.0000000
D    1   1.00
      1.2520000              1.0000000
D    1   1.00
      0.3130000              1.0000000
F    1   1.00
      0.8000000              1.0000000
****
N     0
S    6   1.00
   4173.5110000              0.0018348
    627.4579000              0.0139950
    142.9021000              0.0685870
     40.2343300              0.2322410
     12.8202100              0.4690700
      4.3904370              0.3604550
SP   3   1.00
     11.6263580             -0.1149610              0.0675800
      2.7162800             -0.1691180              0.3239070
      0.7722180              1.1458520              0.7408950
SP   1   1.00
      0.2120313              1.0000000              1.0000000
D    1   1.00
      1.8260000              1.0000000
D    1   1.00
      0.4565000              1.0000000
F    1   1.00
      1.0000000              1.0000000
****
O     0
S    6   1.00
   5484.6717000              0.0018311
    825.2349500              0.0139501
    188.0469600              0.0684451
     52.9645000              0.2327143
     16.8975700              0.4701930
      5.7996353              0.3585209
SP   3   1.00
     15.5396160             -0.1107775              0.0708743
      3.5999336             -0.1480263              0.3397528
      1.0137618              1.1307670              0.7271586
SP   1   1.00
      0.2700058              1.0000000              1.0000000
D    1   1.00
      2.5840000              1.0000000
D    1   1.00
      0.6460000              1.0000000
F    1   1.00
      1.4000000              1.0000000
****
F     0
S    6   1.00
   7001.7130900              0.0018196169
   1051.3660900              0.0139160796
    239.2856900              0.0684053245
     67.3974453              0.233185760
     21.5199573              0.471267439
      7.40310130             0.356618546
SP   3   1.00
     20.8479528             -0.108506975            0.0716287243
      4.80830834            -0.146451658            0.3459121030
      1.34406986             1.128688580            0.7224699570
SP   1   1.00
      0.358151393            1.0000000              1.0000000
D    1   1.00
      3.5000000              1.0000000
D    1   1.00
      0.8750000              1.0000000
F    1   1.00
      1.8500000              1.0000000
****
Al     0
S    6   1.00
  13983.1000000              0.00194267
   2098.7500000              0.0148599
    477.7050000              0.0728494
    134.3600000              0.2468300
     42.8709000              0.4872580
     14.5189000              0.3234960
SP   6   1.00
    239.6680000             -0.00292619             0.00460285
     57.4419000             -0.0374080              0.0331990
     18.2859000             -0.1144870              0.1362820
      6.5991400              0.1156350              0.3304760
      2.4904900              0.6125950              0.4491460
      0.9445400              0.3937990              0.2657040
SP   3   1.00
      1.2779000             -0.2276060             -0.0175130
      0.3975900              0.00144583             0.2445330
      0.1600950              1.0927900              0.8049340
SP   1   1.00
      0.0556577              1.0000000              1.0000000
D    1   1.00
      0.6500000              1.0000000
D    1   1.00
      0.1625000              1.0000000
F    1   1.00
      0.2500000              1.0000000
****
Si     0
S    6   1.00
  16115.9000000              0.00195948
   2425.5800000              0.01492880
    553.8670000              0.07284780
    156.3400000              0.24613000
     50.0683000              0.48591400
     17.0178000              0.32500200
SP   6   1.00
    292.7180000             -0.00278094             0.00443826
     69.8731000             -0.03571460             0.03266790
     22.3363000             -0.11498500             0.13472100
      8.1503900              0.09356340             0.32867800
      3.1345800              0.60301700             0.44964000
      1.2254300              0.41895900             0.26137200
SP   3   1.00
      1.7273800             -0.24463000            -0.01779510
      0.5729220              0.00431572             0.25353900
      0.2221920              1.09818000             0.80066900
SP   1   1.00
      0.0778369              1.00000000             1.00000000
D    1   1.00
      0.9000000              1.0000000
D    1   1.00
      0.2250000              1.0000000
F    1   1.00
      0.3200000              1.0000000
****
P     0
S    6   1.00
  19413.3000000              0.0018516
   2909.4200000              0.0142062
    661.3640000              0.0699995
    185.7590000              0.2400790
     59.1943000              0.4847620
     20.0310000              0.3352000
SP   6   1.00
    339.4780000             -0.00278217             0.00456462
     81.0101000             -0.0360499              0.03369360
     25.8780000             -0.1166310              0.13975500
      9.4522100              0.0968328              0.33936200
      3.6656600              0.6144180              0.45092100
      1.4674600              0.4037980              0.23858600
SP   3   1.00
      2.1562300             -0.2529230             -0.01776530
      0.7489970              0.0328517              0.27405800
      0.2831450              1.0812500              0.78542100
SP   1   1.00
      0.0998317              1.0000000              1.00000000
D    1   1.00
      1.1000000              1.0000000
D    1   1.00
      0.2750000              1.0000000
F    1   1.00
      0.4500000              1.0000000
****
S     0
S    6   1.00
  21917.1000000              0.0018690
   3301.4900000              0.0142300
    754.1460000              0.0696960
    212.7110000              0.2384870
     67.9896000              0.4833070
     23.0515000              0.3380740
SP   6   1.00
    423.7350000             -0.0023767              0.0040610
    100.7100000             -0.0316930              0.0306810
     32.1599000             -0.1133170              0.1304520
     11.8079000              0.0560900              0.3272050
      4.6311000              0.5922550              0.4528510
      1.8702500              0.4550060              0.2560420
SP   3   1.00
      2.6158400             -0.2503740             -0.0145110
      0.9221670              0.0669570              0.3102630
      0.3412870              1.0545100              0.7544830
SP   1   1.00
      0.1171670              1.0000000              1.0000000
D    1   1.00
      1.3000000              1.0000000
D    1   1.00
      0.3250000              1.0000000
F    1   1.00
      0.5500000              1.0000000
****
Cl     0
S    6   1.00
  25180.1000000              0.0018330
   3780.3500000              0.0140340
    860.4740000              0.0690970
    242.1450000              0.2374520
     77.3349000              0.4830340
     26.2470000              0.3398560
SP   6   1.00
    491.7650000             -0.0022974              0.0039894
    116.9840000             -0.0307140              0.0303180
     37.4153000             -0.1125280              0.1298800
     13.7834000              0.0450160              0.3279510
      5.4521500              0.5893530              0.4535270
      2.2258800              0.4652060              0.2521540
SP   3   1.00
      3.1864900             -0.2518300             -0.0142990
      1.1442700              0.0615890              0.3235720
      0.4203770              1.0601800              0.7435070
SP   1   1.00
      0.1426570              1.0000000              1.0000000
D    1   1.00
      1.5000000              1.0000000
D    1   1.00
      0.3750000              1.0000000
F    1   1.00
      0.7000000              1.0000000
****
}

set {
reference uhf
freeze_core true
e_convergence 10
d_convergence 10
dft_spherical_points 1202
dft_radial_points 99
}

e = energy('b3lyp')

print_out('Grab this energy {0}'.format(e))
--------------------------------------------------------------------------

    Molecular point group: c1

    Geometry (in Bohr), charge = 0, multiplicity = 2:

       Center              X                  Y                   Z               Mass
    ------------   -----------------  -----------------  -----------------  -----------------
         C           -0.005461027427    -1.352657982612     0.000049931886    12.000000000000
         C           -0.019417771527     1.462492043788    -0.000186880714    12.000000000000
         H            1.928381199473    -2.109166934512     0.002790596786     1.007825032230
         H           -0.947037822227    -2.113722190312     1.671363999786     1.007825032230
         H           -0.941789648027    -2.113375934712    -1.673394874014     1.007825032230
         H            0.123726503373     2.513934136088    -1.749415546114     1.007825032230
         H            0.132947364373     2.514555573588     1.750286449786     1.007825032230

  Charge       = 0
  Multiplicity = 2
  Basis Set: ANONYMOUS7B9B164D
    Blend: 6-31G_2DFP_
  Basis Set: (ANONYMOUS7B9B164D AUX)
    Blend: DEF2-UNIVERSAL-JKFIT

    Orbital Energies [Eh]
    ---------------------

    Alpha Occupied:

       1A    -10.179616     2A    -10.174163     3A     -0.751939
       4A     -0.604598     5A     -0.446012     6A     -0.410875
       7A     -0.385786     8A     -0.353762     9A     -0.197161

    Alpha Virtual:

      10A      0.099006    11A      0.127738    12A      0.140592
      13A      0.165646    14A      0.203204    15A      0.247986
      16A      0.430586    17A      0.440844    18A      0.445643
      19A      0.449754    20A      0.478831    21A      0.521088
      22A      0.543602    23A      0.574353    24A      0.594755
      25A      0.618421    26A      0.633949    27A      0.639714
      28A      0.649496    29A      0.741129    30A      0.822671
      31A      0.865732    32A      0.931440    33A      0.977439
      34A      1.024238    35A      1.071899    36A      1.082905
      37A      1.086134    38A      1.179670    39A      1.219217
      40A      1.253929    41A      1.323716    42A      1.346086
      43A      1.367734    44A      1.420633    45A      1.446004
      46A      1.509029    47A      1.526033    48A      1.602175
      49A      1.763054    50A      1.806718    51A      1.952064
      52A      2.050151    53A      2.101061    54A      2.698817
      55A      2.802574    56A      2.828779    57A      2.860642
      58A      2.928479    59A      2.962366    60A      2.985965
      61A      3.079923    62A      3.093994    63A      3.157021
      64A      3.171647    65A      3.199149    66A      3.300620
      67A      3.358052    68A      3.390368    69A      3.493504
      70A      3.499852    71A      3.582424    72A      3.595333
      73A      3.712877    74A      3.806771    75A      3.975221
      76A      4.025029    77A      4.089071    78A      4.128259
      79A      4.187799    80A      4.197635    81A      4.204979
      82A      4.292844    83A      4.369592    84A      4.490678
      85A      4.502899    86A      4.529760    87A      4.861920
      88A      4.925357    89A      5.144946    90A      5.164088
      91A      5.278967    92A      5.328898

    Beta Occupied:

       1A    -10.174985     2A    -10.165674     3A     -0.735312
       4A     -0.579947     5A     -0.439912     6A     -0.396125
       7A     -0.377860     8A     -0.349268

    Beta Virtual:

       9A     -0.035985    10A      0.101686    11A      0.138902
      12A      0.142245    13A      0.170501    14A      0.206816
      15A      0.253708    16A      0.441925    17A      0.444823
      18A      0.455428    19A      0.458932    20A      0.487789
      21A      0.549348    22A      0.587808    23A      0.592120
      24A      0.603422    25A      0.623708    26A      0.641825
      27A      0.645389    28A      0.656938    29A      0.766532
      30A      0.822459    31A      0.868786    32A      0.949054
      33A      0.988696    34A      1.032926    35A      1.079832
      36A      1.087483    37A      1.103632    38A      1.183294
      39A      1.226949    40A      1.266351    41A      1.330250
      42A      1.353617    43A      1.374082    44A      1.426639
      45A      1.453469    46A      1.513592    47A      1.537486
      48A      1.613037    49A      1.769654    50A      1.812896
      51A      1.956517    52A      2.060108    53A      2.106608
      54A      2.722058    55A      2.824423    56A      2.830655
      57A      2.876614    58A      2.931044    59A      2.989415
      60A      3.022579    61A      3.093448    62A      3.121279
      63A      3.174728    64A      3.211720    65A      3.218292
      66A      3.339045    67A      3.370467    68A      3.408876
      69A      3.519609    70A      3.536662    71A      3.599448
      72A      3.605420    73A      3.731091    74A      3.807095
      75A      3.985540    76A      4.034356    77A      4.095564
      78A      4.137746    79A      4.202144    80A      4.202384
      81A      4.214408    82A      4.300793    83A      4.373884
      84A      4.497652    85A      4.513713    86A      4.536937
      87A      4.863268    88A      4.929682    89A      5.148275
      90A      5.174985    91A      5.286115    92A      5.331447

    Final Occupation by Irrep:
              A
    DOCC [     8 ]
    SOCC [     1 ]

  @DF-UKS Final Energy:   -79.16618011757504

   => Energetics <=

    Nuclear Repulsion Energy =             36.9446359402610582
    One-Electron Energy =                -178.1021816901012471
    Two-Electron Energy =                  72.2723213113603435
    DFT Exchange-Correlation Energy =     -10.2809556790952001
    Empirical Dispersion Energy =           0.0000000000000000
    VV10 Nonlocal Energy =                  0.0000000000000000
    Total Energy =                        -79.1661801175750384

  UHF NO Occupations:
  HONO-2 :    7  A 1.9997293
  HONO-1 :    8  A 1.9987083
  HONO-0 :    9  A 1.0000000
  LUNO+0 :   10  A 0.0012917
  LUNO+1 :   11  A 0.0002707
  LUNO+2 :   12  A 0.0002523
  LUNO+3 :   13  A 0.0002213

Computation Completed

Properties will be evaluated at   0.000000,   0.000000,   0.000000 [a0]

Properties computed using the SCF density matrix

  Nuclear Dipole Moment: [e a0]
     X:     0.1470      Y:    -0.6488      Z:     0.0008

  Electronic Dipole Moment: [e a0]
     X:    -0.1045      Y:     0.5628      Z:    -0.0011

  Dipole Moment: [e a0]
     X:     0.0424      Y:    -0.0859      Z:    -0.0003     Total:     0.0958

  Dipole Moment: [D]
     X:     0.1078      Y:    -0.2184      Z:    -0.0008     Total:     0.2436

*** tstop() called on n044 at Fri Nov  5 18:45:35 2021
Module time:
	user time   =      61.21 seconds =       1.02 minutes
	system time =       0.41 seconds =       0.01 minutes
	total time  =         62 seconds =       1.03 minutes
Total time:
	user time   =      61.21 seconds =       1.02 minutes
	system time =       0.41 seconds =       0.01 minutes
	total time  =         62 seconds =       1.03 minutes
Grab this energy -79.16618011757504
    Psi4 stopped on: Friday, 05 November 2021 06:45PM
    Psi4 wall time for execution: 0:01:01.66

*** Psi4 exiting successfully. Buy a developer a beer!
