                               Psi4 1.4a2.dev629

  ==> Input File <==

--------------------------------------------------------------------------
import os
memory 14 GB

molecule {
 C   -0.0054756766   -1.3502445382   -0.0009592346
 C   -0.0194127683    1.4616486647    0.0009462921
 H    1.9276059659   -2.1061470390   -0.0022620018
 H   -0.9439929494   -2.1046909261    1.6697479783
 H   -0.9438856481   -2.1172255292   -1.6734978760
 H    0.1280729791    2.4997515672   -1.7474602648
 H    0.1281406737    2.5052175328    1.7534851068
units bohr
0 2
}

basis {

assign 6-31g_2dfp_

[ 6-31g_2dfp_ ]

spherical

!----------------------------------------------------------------------
! Basis Set Exchange
! Version v0.8.13
! https://www.basissetexchange.org
!----------------------------------------------------------------------
!   Basis set: 6-31G(2df,p)
! Description: 6-31G(2df,p)
!        Role: orbital
!     Version: 0  (Data from the original Basis Set Exchange)
!----------------------------------------------------------------------

****
H     0
S    3   1.00
     18.7311370              0.03349460
      2.8253937              0.23472695
      0.6401217              0.81375733
S    1   1.00
      0.1612778              1.00000000
P    1   1.00
      1.5000000              1.0000000
P    1   1.00
      0.3750000              1.0000000
****
B     0
S    6   1.00
   2068.8823000              0.0018663
    310.6495700              0.0142515
     70.6830330              0.0695516
     19.8610800              0.2325729
      6.2993048              0.4670787
      2.1270270              0.3634314
SP   3   1.00
      4.7279710             -0.1303938              0.0745976
      1.1903377             -0.1307889              0.3078467
      0.3594117              1.1309444              0.7434568
SP   1   1.00
      0.1267512              1.0000000              1.0000000
D    1   1.00
      0.8020000              1.0000000
D    1   1.00
      0.2005000              1.0000000
F    1   1.00
      0.5000000              1.0000000
****
C     0
S    6   1.00
   3047.5249000              0.0018347
    457.3695100              0.0140373
    103.9486900              0.0688426
     29.2101550              0.2321844
      9.2866630              0.4679413
      3.1639270              0.3623120
SP   3   1.00
      7.8682724             -0.1193324              0.0689991
      1.8812885             -0.1608542              0.3164240
      0.5442493              1.1434564              0.7443083
SP   1   1.00
      0.1687144              1.0000000              1.0000000
D    1   1.00
      1.2520000              1.0000000
D    1   1.00
      0.3130000              1.0000000
F    1   1.00
      0.8000000              1.0000000
****
N     0
S    6   1.00
   4173.5110000              0.0018348
    627.4579000              0.0139950
    142.9021000              0.0685870
     40.2343300              0.2322410
     12.8202100              0.4690700
      4.3904370              0.3604550
SP   3   1.00
     11.6263580             -0.1149610              0.0675800
      2.7162800             -0.1691180              0.3239070
      0.7722180              1.1458520              0.7408950
SP   1   1.00
      0.2120313              1.0000000              1.0000000
D    1   1.00
      1.8260000              1.0000000
D    1   1.00
      0.4565000              1.0000000
F    1   1.00
      1.0000000              1.0000000
****
O     0
S    6   1.00
   5484.6717000              0.0018311
    825.2349500              0.0139501
    188.0469600              0.0684451
     52.9645000              0.2327143
     16.8975700              0.4701930
      5.7996353              0.3585209
SP   3   1.00
     15.5396160             -0.1107775              0.0708743
      3.5999336             -0.1480263              0.3397528
      1.0137618              1.1307670              0.7271586
SP   1   1.00
      0.2700058              1.0000000              1.0000000
D    1   1.00
      2.5840000              1.0000000
D    1   1.00
      0.6460000              1.0000000
F    1   1.00
      1.4000000              1.0000000
****
F     0
S    6   1.00
   7001.7130900              0.0018196169
   1051.3660900              0.0139160796
    239.2856900              0.0684053245
     67.3974453              0.233185760
     21.5199573              0.471267439
      7.40310130             0.356618546
SP   3   1.00
     20.8479528             -0.108506975            0.0716287243
      4.80830834            -0.146451658            0.3459121030
      1.34406986             1.128688580            0.7224699570
SP   1   1.00
      0.358151393            1.0000000              1.0000000
D    1   1.00
      3.5000000              1.0000000
D    1   1.00
      0.8750000              1.0000000
F    1   1.00
      1.8500000              1.0000000
****
Al     0
S    6   1.00
  13983.1000000              0.00194267
   2098.7500000              0.0148599
    477.7050000              0.0728494
    134.3600000              0.2468300
     42.8709000              0.4872580
     14.5189000              0.3234960
SP   6   1.00
    239.6680000             -0.00292619             0.00460285
     57.4419000             -0.0374080              0.0331990
     18.2859000             -0.1144870              0.1362820
      6.5991400              0.1156350              0.3304760
      2.4904900              0.6125950              0.4491460
      0.9445400              0.3937990              0.2657040
SP   3   1.00
      1.2779000             -0.2276060             -0.0175130
      0.3975900              0.00144583             0.2445330
      0.1600950              1.0927900              0.8049340
SP   1   1.00
      0.0556577              1.0000000              1.0000000
D    1   1.00
      0.6500000              1.0000000
D    1   1.00
      0.1625000              1.0000000
F    1   1.00
      0.2500000              1.0000000
****
Si     0
S    6   1.00
  16115.9000000              0.00195948
   2425.5800000              0.01492880
    553.8670000              0.07284780
    156.3400000              0.24613000
     50.0683000              0.48591400
     17.0178000              0.32500200
SP   6   1.00
    292.7180000             -0.00278094             0.00443826
     69.8731000             -0.03571460             0.03266790
     22.3363000             -0.11498500             0.13472100
      8.1503900              0.09356340             0.32867800
      3.1345800              0.60301700             0.44964000
      1.2254300              0.41895900             0.26137200
SP   3   1.00
      1.7273800             -0.24463000            -0.01779510
      0.5729220              0.00431572             0.25353900
      0.2221920              1.09818000             0.80066900
SP   1   1.00
      0.0778369              1.00000000             1.00000000
D    1   1.00
      0.9000000              1.0000000
D    1   1.00
      0.2250000              1.0000000
F    1   1.00
      0.3200000              1.0000000
****
P     0
S    6   1.00
  19413.3000000              0.0018516
   2909.4200000              0.0142062
    661.3640000              0.0699995
    185.7590000              0.2400790
     59.1943000              0.4847620
     20.0310000              0.3352000
SP   6   1.00
    339.4780000             -0.00278217             0.00456462
     81.0101000             -0.0360499              0.03369360
     25.8780000             -0.1166310              0.13975500
      9.4522100              0.0968328              0.33936200
      3.6656600              0.6144180              0.45092100
      1.4674600              0.4037980              0.23858600
SP   3   1.00
      2.1562300             -0.2529230             -0.01776530
      0.7489970              0.0328517              0.27405800
      0.2831450              1.0812500              0.78542100
SP   1   1.00
      0.0998317              1.0000000              1.00000000
D    1   1.00
      1.1000000              1.0000000
D    1   1.00
      0.2750000              1.0000000
F    1   1.00
      0.4500000              1.0000000
****
S     0
S    6   1.00
  21917.1000000              0.0018690
   3301.4900000              0.0142300
    754.1460000              0.0696960
    212.7110000              0.2384870
     67.9896000              0.4833070
     23.0515000              0.3380740
SP   6   1.00
    423.7350000             -0.0023767              0.0040610
    100.7100000             -0.0316930              0.0306810
     32.1599000             -0.1133170              0.1304520
     11.8079000              0.0560900              0.3272050
      4.6311000              0.5922550              0.4528510
      1.8702500              0.4550060              0.2560420
SP   3   1.00
      2.6158400             -0.2503740             -0.0145110
      0.9221670              0.0669570              0.3102630
      0.3412870              1.0545100              0.7544830
SP   1   1.00
      0.1171670              1.0000000              1.0000000
D    1   1.00
      1.3000000              1.0000000
D    1   1.00
      0.3250000              1.0000000
F    1   1.00
      0.5500000              1.0000000
****
Cl     0
S    6   1.00
  25180.1000000              0.0018330
   3780.3500000              0.0140340
    860.4740000              0.0690970
    242.1450000              0.2374520
     77.3349000              0.4830340
     26.2470000              0.3398560
SP   6   1.00
    491.7650000             -0.0022974              0.0039894
    116.9840000             -0.0307140              0.0303180
     37.4153000             -0.1125280              0.1298800
     13.7834000              0.0450160              0.3279510
      5.4521500              0.5893530              0.4535270
      2.2258800              0.4652060              0.2521540
SP   3   1.00
      3.1864900             -0.2518300             -0.0142990
      1.1442700              0.0615890              0.3235720
      0.4203770              1.0601800              0.7435070
SP   1   1.00
      0.1426570              1.0000000              1.0000000
D    1   1.00
      1.5000000              1.0000000
D    1   1.00
      0.3750000              1.0000000
F    1   1.00
      0.7000000              1.0000000
****
}

set {
reference uhf
freeze_core true
e_convergence 10
d_convergence 10
dft_spherical_points 1202
dft_radial_points 99
}

e = energy('b3lyp')

print_out('Grab this energy {0}'.format(e))
--------------------------------------------------------------------------

    Molecular point group: c1

    Geometry (in Bohr), charge = 0, multiplicity = 2:

       Center              X                  Y                   Z               Mass
    ------------   -----------------  -----------------  -----------------  -----------------
         C           -0.005461744721    -1.350361685924    -0.000954335478    12.000000000000
         C           -0.019398836421     1.461531516976     0.000951191222    12.000000000000
         H            1.927619897779    -2.106264186724    -0.002257102678     1.007825032230
         H           -0.943979017521    -2.104808073824     1.669752877422     1.007825032230
         H           -0.943871716221    -2.117342676924    -1.673492976878     1.007825032230
         H            0.128086910979     2.499634419476    -1.747455365678     1.007825032230
         H            0.128154605579     2.505100385076     1.753490005922     1.007825032230

  Charge       = 0
  Multiplicity = 2
  Basis Set: ANONYMOUSD8E428BC
    Blend: 6-31G_2DFP_
  Basis Set: (ANONYMOUSD8E428BC AUX)
    Blend: DEF2-UNIVERSAL-JKFIT

    Orbital Energies [Eh]
    ---------------------

    Alpha Occupied:

       1A    -10.178923     2A    -10.173630     3A     -0.752486
       4A     -0.604719     5A     -0.447000     6A     -0.410987
       7A     -0.385531     8A     -0.354104     9A     -0.197034

    Alpha Virtual:

      10A      0.099018    11A      0.128474    12A      0.140999
      13A      0.165920    14A      0.203571    15A      0.248258
      16A      0.430733    17A      0.440761    18A      0.446202
      19A      0.449658    20A      0.478774    21A      0.521112
      22A      0.544011    23A      0.574634    24A      0.595143
      25A      0.618803    26A      0.634482    27A      0.640174
      28A      0.651101    29A      0.741479    30A      0.823404
      31A      0.866085    32A      0.932284    33A      0.976931
      34A      1.026446    35A      1.071860    36A      1.083822
      37A      1.088010    38A      1.180177    39A      1.220657
      40A      1.253777    41A      1.323506    42A      1.346825
      43A      1.367880    44A      1.421117    45A      1.447011
      46A      1.511084    47A      1.525633    48A      1.604317
      49A      1.765859    50A      1.808530    51A      1.953470
      52A      2.050155    53A      2.108116    54A      2.699420
      55A      2.802037    56A      2.829865    57A      2.860722
      58A      2.928598    59A      2.963474    60A      2.986635
      61A      3.080410    62A      3.093898    63A      3.158676
      64A      3.172006    65A      3.199074    66A      3.300717
      67A      3.359742    68A      3.390488    69A      3.493019
      70A      3.500823    71A      3.581848    72A      3.595460
      73A      3.716915    74A      3.813090    75A      3.976519
      76A      4.025427    77A      4.088797    78A      4.132487
      79A      4.190319    80A      4.199557    81A      4.206739
      82A      4.300641    83A      4.370723    84A      4.492745
      85A      4.505695    86A      4.532660    87A      4.865991
      88A      4.925660    89A      5.146302    90A      5.173857
      91A      5.281016    92A      5.334817

    Beta Occupied:

       1A    -10.174450     2A    -10.164995     3A     -0.735789
       4A     -0.580152     5A     -0.440837     6A     -0.396167
       7A     -0.377586     8A     -0.349649

    Beta Virtual:

       9A     -0.035971    10A      0.101694    11A      0.139514
      12A      0.142671    13A      0.170793    14A      0.207161
      15A      0.253927    16A      0.441862    17A      0.444715
      18A      0.455336    19A      0.459823    20A      0.487920
      21A      0.549908    22A      0.588050    23A      0.591999
      24A      0.603816    25A      0.624095    26A      0.642446
      27A      0.645864    28A      0.658531    29A      0.766758
      30A      0.823197    31A      0.869150    32A      0.949901
      33A      0.988159    34A      1.035074    35A      1.079892
      36A      1.091376    37A      1.102499    38A      1.183802
      39A      1.228415    40A      1.266131    41A      1.329980
      42A      1.354288    43A      1.374286    44A      1.427120
      45A      1.454570    46A      1.515686    47A      1.536705
      48A      1.615753    49A      1.772458    50A      1.814843
      51A      1.957974    52A      2.060084    53A      2.113673
      54A      2.722708    55A      2.823709    56A      2.831855
      57A      2.876649    58A      2.931185    59A      2.990110
      60A      3.023512    61A      3.093931    62A      3.121252
      63A      3.176555    64A      3.211763    65A      3.218013
      66A      3.339437    67A      3.372406    68A      3.408739
      69A      3.519781    70A      3.536152    71A      3.599210
      72A      3.605848    73A      3.735012    74A      3.813441
      75A      3.986864    76A      4.034241    77A      4.095811
      78A      4.142076    79A      4.204095    80A      4.205121
      81A      4.216209    82A      4.308710    83A      4.375045
      84A      4.499731    85A      4.516372    86A      4.539938
      87A      4.867347    88A      4.930023    89A      5.149666
      90A      5.184706    91A      5.288208    92A      5.337402

    Final Occupation by Irrep:
              A
    DOCC [     8 ]
    SOCC [     1 ]

  @DF-UKS Final Energy:   -79.16614467799246

   => Energetics <=

    Nuclear Repulsion Energy =             36.9933734591332453
    One-Electron Energy =                -178.1967133004101242
    Two-Electron Energy =                  72.3207919616295101
    DFT Exchange-Correlation Energy =     -10.2835967983450907
    Empirical Dispersion Energy =           0.0000000000000000
    VV10 Nonlocal Energy =                  0.0000000000000000
    Total Energy =                        -79.1661446779924631

  UHF NO Occupations:
  HONO-2 :    7  A 1.9997333
  HONO-1 :    8  A 1.9987164
  HONO-0 :    9  A 1.0000000
  LUNO+0 :   10  A 0.0012836
  LUNO+1 :   11  A 0.0002667
  LUNO+2 :   12  A 0.0002534
  LUNO+3 :   13  A 0.0002207

Computation Completed

Properties will be evaluated at   0.000000,   0.000000,   0.000000 [a0]

Properties computed using the SCF density matrix

  Nuclear Dipole Moment: [e a0]
     X:     0.1468      Y:    -0.6567      Z:     0.0000

  Electronic Dipole Moment: [e a0]
     X:    -0.1041      Y:     0.5714      Z:     0.0002

  Dipole Moment: [e a0]
     X:     0.0427      Y:    -0.0852      Z:     0.0003     Total:     0.0953

  Dipole Moment: [D]
     X:     0.1085      Y:    -0.2166      Z:     0.0007     Total:     0.2423

*** tstop() called on n061 at Fri Nov  5 19:23:53 2021
Module time:
	user time   =      50.11 seconds =       0.84 minutes
	system time =       0.55 seconds =       0.01 minutes
	total time  =         50 seconds =       0.83 minutes
Total time:
	user time   =      50.11 seconds =       0.84 minutes
	system time =       0.55 seconds =       0.01 minutes
	total time  =         50 seconds =       0.83 minutes
Grab this energy -79.16614467799246
    Psi4 stopped on: Friday, 05 November 2021 07:23PM
    Psi4 wall time for execution: 0:00:50.70

*** Psi4 exiting successfully. Buy a developer a beer!
