                               Psi4 1.4a2.dev629

  ==> Input File <==

--------------------------------------------------------------------------
import os
memory 14 GB

molecule {
 C   -0.0054171249   -1.3572329419   -0.0000000000
 C   -0.0192962880    1.4659108824    0.0000000000
 H    1.9283335136   -2.1108650362    0.0000000000
 H   -0.9444556655   -2.1152723472    1.6723945677
 H   -0.9444556655   -2.1152723472   -1.6723945677
 H    0.1281719033    2.5105207611   -1.7494909317
 H    0.1281719033    2.5105207611    1.7494909317
units bohr
0 2
}

basis {

assign 6-31g_2dfp_

[ 6-31g_2dfp_ ]

spherical

!----------------------------------------------------------------------
! Basis Set Exchange
! Version v0.8.13
! https://www.basissetexchange.org
!----------------------------------------------------------------------
!   Basis set: 6-31G(2df,p)
! Description: 6-31G(2df,p)
!        Role: orbital
!     Version: 0  (Data from the original Basis Set Exchange)
!----------------------------------------------------------------------

****
H     0
S    3   1.00
     18.7311370              0.03349460
      2.8253937              0.23472695
      0.6401217              0.81375733
S    1   1.00
      0.1612778              1.00000000
P    1   1.00
      1.5000000              1.0000000
P    1   1.00
      0.3750000              1.0000000
****
B     0
S    6   1.00
   2068.8823000              0.0018663
    310.6495700              0.0142515
     70.6830330              0.0695516
     19.8610800              0.2325729
      6.2993048              0.4670787
      2.1270270              0.3634314
SP   3   1.00
      4.7279710             -0.1303938              0.0745976
      1.1903377             -0.1307889              0.3078467
      0.3594117              1.1309444              0.7434568
SP   1   1.00
      0.1267512              1.0000000              1.0000000
D    1   1.00
      0.8020000              1.0000000
D    1   1.00
      0.2005000              1.0000000
F    1   1.00
      0.5000000              1.0000000
****
C     0
S    6   1.00
   3047.5249000              0.0018347
    457.3695100              0.0140373
    103.9486900              0.0688426
     29.2101550              0.2321844
      9.2866630              0.4679413
      3.1639270              0.3623120
SP   3   1.00
      7.8682724             -0.1193324              0.0689991
      1.8812885             -0.1608542              0.3164240
      0.5442493              1.1434564              0.7443083
SP   1   1.00
      0.1687144              1.0000000              1.0000000
D    1   1.00
      1.2520000              1.0000000
D    1   1.00
      0.3130000              1.0000000
F    1   1.00
      0.8000000              1.0000000
****
N     0
S    6   1.00
   4173.5110000              0.0018348
    627.4579000              0.0139950
    142.9021000              0.0685870
     40.2343300              0.2322410
     12.8202100              0.4690700
      4.3904370              0.3604550
SP   3   1.00
     11.6263580             -0.1149610              0.0675800
      2.7162800             -0.1691180              0.3239070
      0.7722180              1.1458520              0.7408950
SP   1   1.00
      0.2120313              1.0000000              1.0000000
D    1   1.00
      1.8260000              1.0000000
D    1   1.00
      0.4565000              1.0000000
F    1   1.00
      1.0000000              1.0000000
****
O     0
S    6   1.00
   5484.6717000              0.0018311
    825.2349500              0.0139501
    188.0469600              0.0684451
     52.9645000              0.2327143
     16.8975700              0.4701930
      5.7996353              0.3585209
SP   3   1.00
     15.5396160             -0.1107775              0.0708743
      3.5999336             -0.1480263              0.3397528
      1.0137618              1.1307670              0.7271586
SP   1   1.00
      0.2700058              1.0000000              1.0000000
D    1   1.00
      2.5840000              1.0000000
D    1   1.00
      0.6460000              1.0000000
F    1   1.00
      1.4000000              1.0000000
****
F     0
S    6   1.00
   7001.7130900              0.0018196169
   1051.3660900              0.0139160796
    239.2856900              0.0684053245
     67.3974453              0.233185760
     21.5199573              0.471267439
      7.40310130             0.356618546
SP   3   1.00
     20.8479528             -0.108506975            0.0716287243
      4.80830834            -0.146451658            0.3459121030
      1.34406986             1.128688580            0.7224699570
SP   1   1.00
      0.358151393            1.0000000              1.0000000
D    1   1.00
      3.5000000              1.0000000
D    1   1.00
      0.8750000              1.0000000
F    1   1.00
      1.8500000              1.0000000
****
Al     0
S    6   1.00
  13983.1000000              0.00194267
   2098.7500000              0.0148599
    477.7050000              0.0728494
    134.3600000              0.2468300
     42.8709000              0.4872580
     14.5189000              0.3234960
SP   6   1.00
    239.6680000             -0.00292619             0.00460285
     57.4419000             -0.0374080              0.0331990
     18.2859000             -0.1144870              0.1362820
      6.5991400              0.1156350              0.3304760
      2.4904900              0.6125950              0.4491460
      0.9445400              0.3937990              0.2657040
SP   3   1.00
      1.2779000             -0.2276060             -0.0175130
      0.3975900              0.00144583             0.2445330
      0.1600950              1.0927900              0.8049340
SP   1   1.00
      0.0556577              1.0000000              1.0000000
D    1   1.00
      0.6500000              1.0000000
D    1   1.00
      0.1625000              1.0000000
F    1   1.00
      0.2500000              1.0000000
****
Si     0
S    6   1.00
  16115.9000000              0.00195948
   2425.5800000              0.01492880
    553.8670000              0.07284780
    156.3400000              0.24613000
     50.0683000              0.48591400
     17.0178000              0.32500200
SP   6   1.00
    292.7180000             -0.00278094             0.00443826
     69.8731000             -0.03571460             0.03266790
     22.3363000             -0.11498500             0.13472100
      8.1503900              0.09356340             0.32867800
      3.1345800              0.60301700             0.44964000
      1.2254300              0.41895900             0.26137200
SP   3   1.00
      1.7273800             -0.24463000            -0.01779510
      0.5729220              0.00431572             0.25353900
      0.2221920              1.09818000             0.80066900
SP   1   1.00
      0.0778369              1.00000000             1.00000000
D    1   1.00
      0.9000000              1.0000000
D    1   1.00
      0.2250000              1.0000000
F    1   1.00
      0.3200000              1.0000000
****
P     0
S    6   1.00
  19413.3000000              0.0018516
   2909.4200000              0.0142062
    661.3640000              0.0699995
    185.7590000              0.2400790
     59.1943000              0.4847620
     20.0310000              0.3352000
SP   6   1.00
    339.4780000             -0.00278217             0.00456462
     81.0101000             -0.0360499              0.03369360
     25.8780000             -0.1166310              0.13975500
      9.4522100              0.0968328              0.33936200
      3.6656600              0.6144180              0.45092100
      1.4674600              0.4037980              0.23858600
SP   3   1.00
      2.1562300             -0.2529230             -0.01776530
      0.7489970              0.0328517              0.27405800
      0.2831450              1.0812500              0.78542100
SP   1   1.00
      0.0998317              1.0000000              1.00000000
D    1   1.00
      1.1000000              1.0000000
D    1   1.00
      0.2750000              1.0000000
F    1   1.00
      0.4500000              1.0000000
****
S     0
S    6   1.00
  21917.1000000              0.0018690
   3301.4900000              0.0142300
    754.1460000              0.0696960
    212.7110000              0.2384870
     67.9896000              0.4833070
     23.0515000              0.3380740
SP   6   1.00
    423.7350000             -0.0023767              0.0040610
    100.7100000             -0.0316930              0.0306810
     32.1599000             -0.1133170              0.1304520
     11.8079000              0.0560900              0.3272050
      4.6311000              0.5922550              0.4528510
      1.8702500              0.4550060              0.2560420
SP   3   1.00
      2.6158400             -0.2503740             -0.0145110
      0.9221670              0.0669570              0.3102630
      0.3412870              1.0545100              0.7544830
SP   1   1.00
      0.1171670              1.0000000              1.0000000
D    1   1.00
      1.3000000              1.0000000
D    1   1.00
      0.3250000              1.0000000
F    1   1.00
      0.5500000              1.0000000
****
Cl     0
S    6   1.00
  25180.1000000              0.0018330
   3780.3500000              0.0140340
    860.4740000              0.0690970
    242.1450000              0.2374520
     77.3349000              0.4830340
     26.2470000              0.3398560
SP   6   1.00
    491.7650000             -0.0022974              0.0039894
    116.9840000             -0.0307140              0.0303180
     37.4153000             -0.1125280              0.1298800
     13.7834000              0.0450160              0.3279510
      5.4521500              0.5893530              0.4535270
      2.2258800              0.4652060              0.2521540
SP   3   1.00
      3.1864900             -0.2518300             -0.0142990
      1.1442700              0.0615890              0.3235720
      0.4203770              1.0601800              0.7435070
SP   1   1.00
      0.1426570              1.0000000              1.0000000
D    1   1.00
      1.5000000              1.0000000
D    1   1.00
      0.3750000              1.0000000
F    1   1.00
      0.7000000              1.0000000
****
}

set {
reference uhf
freeze_core true
e_convergence 10
d_convergence 10
dft_spherical_points 1202
dft_radial_points 99
}

e = energy('b3lyp')

print_out('Grab this energy {0}'.format(e))
--------------------------------------------------------------------------

    Molecular point group: cs

    Geometry (in Bohr), charge = 0, multiplicity = 2:

       Center              X                  Y                   Z               Mass
    ------------   -----------------  -----------------  -----------------  -----------------
         C           -0.005469447854    -1.356318146911     0.000000000000    12.000000000000
         C           -0.019348610954     1.466825677389     0.000000000000    12.000000000000
         H            1.928281190646    -2.109950241211     0.000000000000     1.007825032230
         H           -0.944507988454    -2.114357552211     1.672394567700     1.007825032230
         H           -0.944507988454    -2.114357552211    -1.672394567700     1.007825032230
         H            0.128119580346     2.511435556089    -1.749490931700     1.007825032230
         H            0.128119580346     2.511435556089     1.749490931700     1.007825032230

  Charge       = 0
  Multiplicity = 2
  Basis Set: ANONYMOUS04109061
    Blend: 6-31G_2DFP_
  Basis Set: (ANONYMOUS04109061 AUX)
    Blend: DEF2-UNIVERSAL-JKFIT

    Orbital Energies [Eh]
    ---------------------

    Alpha Occupied:

       1Ap   -10.179528     2Ap   -10.174132     3Ap    -0.751291
       4Ap    -0.605052     1App   -0.446249     5Ap    -0.410671
       6Ap    -0.384748     2App   -0.354527     7Ap    -0.197397

    Alpha Virtual:

       8Ap     0.099068     9Ap     0.128017     3App    0.141254
      10Ap     0.165847     4App    0.203253    11Ap     0.246615
      12Ap     0.430174     5App    0.440491    13Ap     0.446560
       6App    0.450129    14Ap     0.478531    15Ap     0.520981
      16Ap     0.544094     7App    0.574290    17Ap     0.593837
       8App    0.619039    18Ap     0.634036    19Ap     0.639797
       9App    0.650231    20Ap     0.741304    10App    0.822495
      11App    0.865791    21Ap     0.931215    22Ap     0.977257
      12App    1.025183    13App    1.071620    23Ap     1.083381
      24Ap     1.085402    25Ap     1.179747    14App    1.220872
      26Ap     1.253327    15App    1.323613    27Ap     1.344195
      28Ap     1.366910    29Ap     1.421023    16App    1.446412
      17App    1.509929    30Ap     1.523793    31Ap     1.603155
      32Ap     1.764942    33Ap     1.807294    18App    1.951407
      19App    2.049512    34Ap     2.102793    35Ap     2.698278
      36Ap     2.800793    20App    2.828996    21App    2.860475
      22App    2.928974    37Ap     2.962827    38Ap     2.986923
      23App    3.080497    39Ap     3.093250    24App    3.158914
      40Ap     3.170292    25App    3.199248    26App    3.300412
      41Ap     3.357746    42Ap     3.390072    43Ap     3.494472
      27App    3.498791    28App    3.580511    44Ap     3.596196
      45Ap     3.710982    29App    3.806973    46Ap     3.973645
      47Ap     4.023001    48Ap     4.087536    49Ap     4.128845
      30App    4.189357    31App    4.197339    50Ap     4.204154
      51Ap     4.293044    32App    4.372312    33App    4.489999
      52Ap     4.500417    53Ap     4.527174    34App    4.865206
      54Ap     4.927043    35App    5.146471    55Ap     5.169111
      56Ap     5.279142    36App    5.329026

    Beta Occupied:

       1Ap   -10.174947     2Ap   -10.165580     3Ap    -0.734673
       4Ap    -0.580389     1App   -0.440115     5Ap    -0.396103
       6Ap    -0.376812     2App   -0.350066

    Beta Virtual:

       7Ap    -0.035991     8Ap     0.101724     9Ap     0.139187
       3App    0.142872    10Ap     0.170631     4App    0.206850
      11Ap     0.252387     5App    0.441545    12Ap     0.445156
       6App    0.455829    13Ap     0.459250    14Ap     0.487251
      15Ap     0.549118     7App    0.587815    16Ap     0.592686
      17Ap     0.602648     8App    0.624299    18Ap     0.641910
      19Ap     0.645531     9App    0.657668    20Ap     0.766708
      10App    0.822275    11App    0.868796    21Ap     0.948865
      22Ap     0.988460    12App    1.033791    13App    1.079606
      23Ap     1.088271    24Ap     1.102566    25Ap     1.183311
      14App    1.228667    26Ap     1.265691    15App    1.330102
      27Ap     1.351672    28Ap     1.373215    29Ap     1.426935
      16App    1.453882    17App    1.514517    30Ap     1.535024
      31Ap     1.614350    32Ap     1.771490    33Ap     1.813416
      18App    1.955840    19App    2.059427    34Ap     2.108271
      35Ap     2.721538    36Ap     2.822628    20App    2.830944
      21App    2.876518    22App    2.931486    37Ap     2.989543
      38Ap     3.023763    23App    3.093853    39Ap     3.120585
      24App    3.176475    40Ap     3.210410    25App    3.218375
      26App    3.339200    41Ap     3.370609    42Ap     3.408518
      27App    3.518914    43Ap     3.537444    28App    3.597121
      44Ap     3.606268    45Ap     3.729177    29App    3.807258
      46Ap     3.983894    47Ap     4.032712    48Ap     4.093904
      49Ap     4.138296    30App    4.201818    31App    4.204002
      50Ap     4.213358    51Ap     4.301038    32App    4.376521
      33App    4.496951    52Ap     4.510985    53Ap     4.534390
      34App    4.866545    54Ap     4.931312    35App    5.149777
      55Ap     5.180008    56Ap     5.286210    36App    5.331547

    Final Occupation by Irrep:
             Ap   App
    DOCC [     6,    2 ]
    SOCC [     1,    0 ]

  @DF-UKS Final Energy:   -79.16614411590862

   => Energetics <=

    Nuclear Repulsion Energy =             36.9194186437315395
    One-Electron Energy =                -178.0521084431693737
    Two-Electron Energy =                  72.2478663498917371
    DFT Exchange-Correlation Energy =     -10.2813206663625394
    Empirical Dispersion Energy =           0.0000000000000000
    VV10 Nonlocal Energy =                  0.0000000000000000
    Total Energy =                        -79.1661441159086223

  UHF NO Occupations:
  HONO-2 :    2App 1.9997316
  HONO-1 :    6 Ap 1.9987066
  HONO-0 :    7 Ap 1.0000000
  LUNO+0 :    8 Ap 0.0012934
  LUNO+1 :    3App 0.0002684
  LUNO+2 :    9 Ap 0.0002478
  LUNO+3 :   10 Ap 0.0002222

Computation Completed

Properties will be evaluated at   0.000000,   0.000000,   0.000000 [a0]

Properties computed using the SCF density matrix

  Nuclear Dipole Moment: [e a0]
     X:     0.1466      Y:    -0.6527      Z:     0.0000

  Electronic Dipole Moment: [e a0]
     X:    -0.1040      Y:     0.5677      Z:     0.0000

  Dipole Moment: [e a0]
     X:     0.0426      Y:    -0.0851      Z:     0.0000     Total:     0.0951

  Dipole Moment: [D]
     X:     0.1082      Y:    -0.2162      Z:     0.0000     Total:     0.2418

*** tstop() called on n045 at Fri Nov  5 17:38:39 2021
Module time:
	user time   =      65.01 seconds =       1.08 minutes
	system time =       0.44 seconds =       0.01 minutes
	total time  =         66 seconds =       1.10 minutes
Total time:
	user time   =      65.01 seconds =       1.08 minutes
	system time =       0.44 seconds =       0.01 minutes
	total time  =         66 seconds =       1.10 minutes
Grab this energy -79.16614411590862
    Psi4 stopped on: Friday, 05 November 2021 05:38PM
    Psi4 wall time for execution: 0:01:05.51

*** Psi4 exiting successfully. Buy a developer a beer!
