                               Psi4 1.4a2.dev629

  ==> Input File <==

--------------------------------------------------------------------------
import os
memory 14 GB

molecule {
 C   -0.0055379075   -1.3515790585    0.0017030249
 C   -0.0194497955    1.4650937801    0.0001324541
 H    1.9279597888   -2.1125118830    0.0046269407
 H   -0.9401488934   -2.1165717866    1.6690463239
 H   -0.9482474909   -2.1173030467   -1.6750907702
 H    0.1279465994    2.5109808692   -1.7497089633
 H    0.1285302754    2.5102008576    1.7492909898
units bohr
0 2
}

basis {

assign 6-31g_2dfp_

[ 6-31g_2dfp_ ]

spherical

!----------------------------------------------------------------------
! Basis Set Exchange
! Version v0.8.13
! https://www.basissetexchange.org
!----------------------------------------------------------------------
!   Basis set: 6-31G(2df,p)
! Description: 6-31G(2df,p)
!        Role: orbital
!     Version: 0  (Data from the original Basis Set Exchange)
!----------------------------------------------------------------------

****
H     0
S    3   1.00
     18.7311370              0.03349460
      2.8253937              0.23472695
      0.6401217              0.81375733
S    1   1.00
      0.1612778              1.00000000
P    1   1.00
      1.5000000              1.0000000
P    1   1.00
      0.3750000              1.0000000
****
B     0
S    6   1.00
   2068.8823000              0.0018663
    310.6495700              0.0142515
     70.6830330              0.0695516
     19.8610800              0.2325729
      6.2993048              0.4670787
      2.1270270              0.3634314
SP   3   1.00
      4.7279710             -0.1303938              0.0745976
      1.1903377             -0.1307889              0.3078467
      0.3594117              1.1309444              0.7434568
SP   1   1.00
      0.1267512              1.0000000              1.0000000
D    1   1.00
      0.8020000              1.0000000
D    1   1.00
      0.2005000              1.0000000
F    1   1.00
      0.5000000              1.0000000
****
C     0
S    6   1.00
   3047.5249000              0.0018347
    457.3695100              0.0140373
    103.9486900              0.0688426
     29.2101550              0.2321844
      9.2866630              0.4679413
      3.1639270              0.3623120
SP   3   1.00
      7.8682724             -0.1193324              0.0689991
      1.8812885             -0.1608542              0.3164240
      0.5442493              1.1434564              0.7443083
SP   1   1.00
      0.1687144              1.0000000              1.0000000
D    1   1.00
      1.2520000              1.0000000
D    1   1.00
      0.3130000              1.0000000
F    1   1.00
      0.8000000              1.0000000
****
N     0
S    6   1.00
   4173.5110000              0.0018348
    627.4579000              0.0139950
    142.9021000              0.0685870
     40.2343300              0.2322410
     12.8202100              0.4690700
      4.3904370              0.3604550
SP   3   1.00
     11.6263580             -0.1149610              0.0675800
      2.7162800             -0.1691180              0.3239070
      0.7722180              1.1458520              0.7408950
SP   1   1.00
      0.2120313              1.0000000              1.0000000
D    1   1.00
      1.8260000              1.0000000
D    1   1.00
      0.4565000              1.0000000
F    1   1.00
      1.0000000              1.0000000
****
O     0
S    6   1.00
   5484.6717000              0.0018311
    825.2349500              0.0139501
    188.0469600              0.0684451
     52.9645000              0.2327143
     16.8975700              0.4701930
      5.7996353              0.3585209
SP   3   1.00
     15.5396160             -0.1107775              0.0708743
      3.5999336             -0.1480263              0.3397528
      1.0137618              1.1307670              0.7271586
SP   1   1.00
      0.2700058              1.0000000              1.0000000
D    1   1.00
      2.5840000              1.0000000
D    1   1.00
      0.6460000              1.0000000
F    1   1.00
      1.4000000              1.0000000
****
F     0
S    6   1.00
   7001.7130900              0.0018196169
   1051.3660900              0.0139160796
    239.2856900              0.0684053245
     67.3974453              0.233185760
     21.5199573              0.471267439
      7.40310130             0.356618546
SP   3   1.00
     20.8479528             -0.108506975            0.0716287243
      4.80830834            -0.146451658            0.3459121030
      1.34406986             1.128688580            0.7224699570
SP   1   1.00
      0.358151393            1.0000000              1.0000000
D    1   1.00
      3.5000000              1.0000000
D    1   1.00
      0.8750000              1.0000000
F    1   1.00
      1.8500000              1.0000000
****
Al     0
S    6   1.00
  13983.1000000              0.00194267
   2098.7500000              0.0148599
    477.7050000              0.0728494
    134.3600000              0.2468300
     42.8709000              0.4872580
     14.5189000              0.3234960
SP   6   1.00
    239.6680000             -0.00292619             0.00460285
     57.4419000             -0.0374080              0.0331990
     18.2859000             -0.1144870              0.1362820
      6.5991400              0.1156350              0.3304760
      2.4904900              0.6125950              0.4491460
      0.9445400              0.3937990              0.2657040
SP   3   1.00
      1.2779000             -0.2276060             -0.0175130
      0.3975900              0.00144583             0.2445330
      0.1600950              1.0927900              0.8049340
SP   1   1.00
      0.0556577              1.0000000              1.0000000
D    1   1.00
      0.6500000              1.0000000
D    1   1.00
      0.1625000              1.0000000
F    1   1.00
      0.2500000              1.0000000
****
Si     0
S    6   1.00
  16115.9000000              0.00195948
   2425.5800000              0.01492880
    553.8670000              0.07284780
    156.3400000              0.24613000
     50.0683000              0.48591400
     17.0178000              0.32500200
SP   6   1.00
    292.7180000             -0.00278094             0.00443826
     69.8731000             -0.03571460             0.03266790
     22.3363000             -0.11498500             0.13472100
      8.1503900              0.09356340             0.32867800
      3.1345800              0.60301700             0.44964000
      1.2254300              0.41895900             0.26137200
SP   3   1.00
      1.7273800             -0.24463000            -0.01779510
      0.5729220              0.00431572             0.25353900
      0.2221920              1.09818000             0.80066900
SP   1   1.00
      0.0778369              1.00000000             1.00000000
D    1   1.00
      0.9000000              1.0000000
D    1   1.00
      0.2250000              1.0000000
F    1   1.00
      0.3200000              1.0000000
****
P     0
S    6   1.00
  19413.3000000              0.0018516
   2909.4200000              0.0142062
    661.3640000              0.0699995
    185.7590000              0.2400790
     59.1943000              0.4847620
     20.0310000              0.3352000
SP   6   1.00
    339.4780000             -0.00278217             0.00456462
     81.0101000             -0.0360499              0.03369360
     25.8780000             -0.1166310              0.13975500
      9.4522100              0.0968328              0.33936200
      3.6656600              0.6144180              0.45092100
      1.4674600              0.4037980              0.23858600
SP   3   1.00
      2.1562300             -0.2529230             -0.01776530
      0.7489970              0.0328517              0.27405800
      0.2831450              1.0812500              0.78542100
SP   1   1.00
      0.0998317              1.0000000              1.00000000
D    1   1.00
      1.1000000              1.0000000
D    1   1.00
      0.2750000              1.0000000
F    1   1.00
      0.4500000              1.0000000
****
S     0
S    6   1.00
  21917.1000000              0.0018690
   3301.4900000              0.0142300
    754.1460000              0.0696960
    212.7110000              0.2384870
     67.9896000              0.4833070
     23.0515000              0.3380740
SP   6   1.00
    423.7350000             -0.0023767              0.0040610
    100.7100000             -0.0316930              0.0306810
     32.1599000             -0.1133170              0.1304520
     11.8079000              0.0560900              0.3272050
      4.6311000              0.5922550              0.4528510
      1.8702500              0.4550060              0.2560420
SP   3   1.00
      2.6158400             -0.2503740             -0.0145110
      0.9221670              0.0669570              0.3102630
      0.3412870              1.0545100              0.7544830
SP   1   1.00
      0.1171670              1.0000000              1.0000000
D    1   1.00
      1.3000000              1.0000000
D    1   1.00
      0.3250000              1.0000000
F    1   1.00
      0.5500000              1.0000000
****
Cl     0
S    6   1.00
  25180.1000000              0.0018330
   3780.3500000              0.0140340
    860.4740000              0.0690970
    242.1450000              0.2374520
     77.3349000              0.4830340
     26.2470000              0.3398560
SP   6   1.00
    491.7650000             -0.0022974              0.0039894
    116.9840000             -0.0307140              0.0303180
     37.4153000             -0.1125280              0.1298800
     13.7834000              0.0450160              0.3279510
      5.4521500              0.5893530              0.4535270
      2.2258800              0.4652060              0.2521540
SP   3   1.00
      3.1864900             -0.2518300             -0.0142990
      1.1442700              0.0615890              0.3235720
      0.4203770              1.0601800              0.7435070
SP   1   1.00
      0.1426570              1.0000000              1.0000000
D    1   1.00
      1.5000000              1.0000000
D    1   1.00
      0.3750000              1.0000000
F    1   1.00
      0.7000000              1.0000000
****
}

set {
reference uhf
freeze_core true
e_convergence 10
d_convergence 10
dft_spherical_points 1202
dft_radial_points 99
}

e = energy('b3lyp')

print_out('Grab this energy {0}'.format(e))
--------------------------------------------------------------------------

    Molecular point group: c1

    Geometry (in Bohr), charge = 0, multiplicity = 2:

       Center              X                  Y                   Z               Mass
    ------------   -----------------  -----------------  -----------------  -----------------
         C           -0.005486403470    -1.352495129415     0.001008241359    12.000000000000
         C           -0.019398291470     1.464177709185    -0.000562329441    12.000000000000
         H            1.928011292830    -2.113427953915     0.003932157159     1.007825032230
         H           -0.940097389370    -2.117487857515     1.668351540359     1.007825032230
         H           -0.948195986870    -2.118219117615    -1.675785553741     1.007825032230
         H            0.127998103430     2.510064798285    -1.750403746841     1.007825032230
         H            0.128581779430     2.509284786685     1.748596206259     1.007825032230

  Charge       = 0
  Multiplicity = 2
  Basis Set: ANONYMOUS579C9A99
    Blend: 6-31G_2DFP_
  Basis Set: (ANONYMOUS579C9A99 AUX)
    Blend: DEF2-UNIVERSAL-JKFIT

    Orbital Energies [Eh]
    ---------------------

    Alpha Occupied:

       1A    -10.179463     2A    -10.174273     3A     -0.751751
       4A     -0.604919     5A     -0.446251     6A     -0.410409
       7A     -0.385718     8A     -0.353991     9A     -0.197305

    Alpha Virtual:

      10A      0.099011    11A      0.127942    12A      0.140755
      13A      0.165633    14A      0.203308    15A      0.247792
      16A      0.430509    17A      0.440757    18A      0.445992
      19A      0.449836    20A      0.478699    21A      0.520878
      22A      0.543592    23A      0.574173    24A      0.594316
      25A      0.618447    26A      0.633973    27A      0.639751
      28A      0.650088    29A      0.741205    30A      0.822692
      31A      0.865971    32A      0.931144    33A      0.976995
      34A      1.024627    35A      1.071348    36A      1.083546
      37A      1.086325    38A      1.180092    39A      1.220083
      40A      1.254128    41A      1.323379    42A      1.345389
      43A      1.368079    44A      1.419392    45A      1.445120
      46A      1.509955    47A      1.524506    48A      1.603589
      49A      1.763986    50A      1.806053    51A      1.952846
      52A      2.050379    53A      2.103449    54A      2.698357
      55A      2.801502    56A      2.828765    57A      2.860506
      58A      2.928596    59A      2.963287    60A      2.986147
      61A      3.079866    62A      3.093375    63A      3.158514
      64A      3.171189    65A      3.198875    66A      3.300440
      67A      3.358574    68A      3.390184    69A      3.493513
      70A      3.500298    71A      3.581427    72A      3.593100
      73A      3.713628    74A      3.806256    75A      3.973738
      76A      4.024436    77A      4.088618    78A      4.130050
      79A      4.189136    80A      4.199051    81A      4.206457
      82A      4.296195    83A      4.365498    84A      4.489772
      85A      4.501647    86A      4.527407    87A      4.864776
      88A      4.921792    89A      5.146632    90A      5.168503
      91A      5.278504    92A      5.329730

    Beta Occupied:

       1A    -10.175098     2A    -10.165527     3A     -0.735068
       4A     -0.580341     5A     -0.440093     6A     -0.395663
       7A     -0.377789     8A     -0.349545

    Beta Virtual:

       9A     -0.036159    10A      0.101656    11A      0.139109
      12A      0.142380    13A      0.170518    14A      0.206910
      15A      0.253514    16A      0.441824    17A      0.444909
      18A      0.455522    19A      0.459272    20A      0.487621
      21A      0.549096    22A      0.587591    23A      0.592069
      24A      0.603013    25A      0.623780    26A      0.641921
      27A      0.645490    28A      0.657515    29A      0.766534
      30A      0.822490    31A      0.869033    32A      0.948840
      33A      0.988161    34A      1.033244    35A      1.079324
      36A      1.089612    37A      1.102244    38A      1.183786
      39A      1.227759    40A      1.266481    41A      1.330008
      42A      1.352891    43A      1.374422    44A      1.425405
      45A      1.452604    46A      1.514543    47A      1.535759
      48A      1.614718    49A      1.770509    50A      1.812365
      51A      1.957278    52A      2.060356    53A      2.108993
      54A      2.721567    55A      2.823303    56A      2.830627
      57A      2.876560    58A      2.931147    59A      2.990197
      60A      3.022883    61A      3.093293    62A      3.120591
      63A      3.176427    64A      3.211314    65A      3.217679
      66A      3.339140    67A      3.370766    68A      3.408971
      69A      3.520005    70A      3.536486    71A      3.598119
      72A      3.603509    73A      3.731781    74A      3.806598
      75A      3.984675    76A      4.033231    77A      4.095096
      78A      4.139563    79A      4.203164    80A      4.204318
      81A      4.215802    82A      4.304146    83A      4.369788
      84A      4.496752    85A      4.512302    86A      4.534741
      87A      4.866137    88A      4.926126    89A      5.149943
      90A      5.179408    91A      5.285630    92A      5.332321

    Final Occupation by Irrep:
              A
    DOCC [     8 ]
    SOCC [     1 ]

  @DF-UKS Final Energy:   -79.16617398014927

   => Energetics <=

    Nuclear Repulsion Energy =             36.9402657553315095
    One-Electron Energy =                -178.0930670044376427
    Two-Electron Energy =                  72.2677920132309737
    DFT Exchange-Correlation Energy =     -10.2811647442741219
    Empirical Dispersion Energy =           0.0000000000000000
    VV10 Nonlocal Energy =                  0.0000000000000000
    Total Energy =                        -79.1661739801492672

  UHF NO Occupations:
  HONO-2 :    7  A 1.9997317
  HONO-1 :    8  A 1.9987118
  HONO-0 :    9  A 1.0000000
  LUNO+0 :   10  A 0.0012882
  LUNO+1 :   11  A 0.0002683
  LUNO+2 :   12  A 0.0002531
  LUNO+3 :   13  A 0.0002218

Computation Completed

Properties will be evaluated at   0.000000,   0.000000,   0.000000 [a0]

Properties computed using the SCF density matrix

  Nuclear Dipole Moment: [e a0]
     X:     0.1470      Y:    -0.6597      Z:    -0.0026

  Electronic Dipole Moment: [e a0]
     X:    -0.1044      Y:     0.5747      Z:     0.0042

  Dipole Moment: [e a0]
     X:     0.0426      Y:    -0.0849      Z:     0.0015     Total:     0.0950

  Dipole Moment: [D]
     X:     0.1082      Y:    -0.2159      Z:     0.0039     Total:     0.2416

*** tstop() called on n044 at Fri Nov  5 17:49:50 2021
Module time:
	user time   =      61.55 seconds =       1.03 minutes
	system time =       0.46 seconds =       0.01 minutes
	total time  =         62 seconds =       1.03 minutes
Total time:
	user time   =      61.55 seconds =       1.03 minutes
	system time =       0.46 seconds =       0.01 minutes
	total time  =         62 seconds =       1.03 minutes
Grab this energy -79.16617398014927
    Psi4 stopped on: Friday, 05 November 2021 05:49PM
    Psi4 wall time for execution: 0:01:02.06

*** Psi4 exiting successfully. Buy a developer a beer!
