                               Psi4 1.4a2.dev629

  ==> Input File <==

--------------------------------------------------------------------------
import os
memory 14 GB

molecule {
 C   -0.0088481195   -1.3545925673   -0.0000000000
 C   -0.0201769851    1.4657067346    0.0000000000
 H    1.9275802318   -2.1032713149   -0.0000000000
 H   -0.9451723186   -2.1203765517    1.6721796730
 H   -0.9451723186   -2.1203765517   -1.6721796730
 H    0.1314210432    2.5106099916   -1.7499572941
 H    0.1314210432    2.5106099916    1.7499572941
units bohr
0 2
}

basis {

assign 6-31g_2dfp_

[ 6-31g_2dfp_ ]

spherical

!----------------------------------------------------------------------
! Basis Set Exchange
! Version v0.8.13
! https://www.basissetexchange.org
!----------------------------------------------------------------------
!   Basis set: 6-31G(2df,p)
! Description: 6-31G(2df,p)
!        Role: orbital
!     Version: 0  (Data from the original Basis Set Exchange)
!----------------------------------------------------------------------

****
H     0
S    3   1.00
     18.7311370              0.03349460
      2.8253937              0.23472695
      0.6401217              0.81375733
S    1   1.00
      0.1612778              1.00000000
P    1   1.00
      1.5000000              1.0000000
P    1   1.00
      0.3750000              1.0000000
****
B     0
S    6   1.00
   2068.8823000              0.0018663
    310.6495700              0.0142515
     70.6830330              0.0695516
     19.8610800              0.2325729
      6.2993048              0.4670787
      2.1270270              0.3634314
SP   3   1.00
      4.7279710             -0.1303938              0.0745976
      1.1903377             -0.1307889              0.3078467
      0.3594117              1.1309444              0.7434568
SP   1   1.00
      0.1267512              1.0000000              1.0000000
D    1   1.00
      0.8020000              1.0000000
D    1   1.00
      0.2005000              1.0000000
F    1   1.00
      0.5000000              1.0000000
****
C     0
S    6   1.00
   3047.5249000              0.0018347
    457.3695100              0.0140373
    103.9486900              0.0688426
     29.2101550              0.2321844
      9.2866630              0.4679413
      3.1639270              0.3623120
SP   3   1.00
      7.8682724             -0.1193324              0.0689991
      1.8812885             -0.1608542              0.3164240
      0.5442493              1.1434564              0.7443083
SP   1   1.00
      0.1687144              1.0000000              1.0000000
D    1   1.00
      1.2520000              1.0000000
D    1   1.00
      0.3130000              1.0000000
F    1   1.00
      0.8000000              1.0000000
****
N     0
S    6   1.00
   4173.5110000              0.0018348
    627.4579000              0.0139950
    142.9021000              0.0685870
     40.2343300              0.2322410
     12.8202100              0.4690700
      4.3904370              0.3604550
SP   3   1.00
     11.6263580             -0.1149610              0.0675800
      2.7162800             -0.1691180              0.3239070
      0.7722180              1.1458520              0.7408950
SP   1   1.00
      0.2120313              1.0000000              1.0000000
D    1   1.00
      1.8260000              1.0000000
D    1   1.00
      0.4565000              1.0000000
F    1   1.00
      1.0000000              1.0000000
****
O     0
S    6   1.00
   5484.6717000              0.0018311
    825.2349500              0.0139501
    188.0469600              0.0684451
     52.9645000              0.2327143
     16.8975700              0.4701930
      5.7996353              0.3585209
SP   3   1.00
     15.5396160             -0.1107775              0.0708743
      3.5999336             -0.1480263              0.3397528
      1.0137618              1.1307670              0.7271586
SP   1   1.00
      0.2700058              1.0000000              1.0000000
D    1   1.00
      2.5840000              1.0000000
D    1   1.00
      0.6460000              1.0000000
F    1   1.00
      1.4000000              1.0000000
****
F     0
S    6   1.00
   7001.7130900              0.0018196169
   1051.3660900              0.0139160796
    239.2856900              0.0684053245
     67.3974453              0.233185760
     21.5199573              0.471267439
      7.40310130             0.356618546
SP   3   1.00
     20.8479528             -0.108506975            0.0716287243
      4.80830834            -0.146451658            0.3459121030
      1.34406986             1.128688580            0.7224699570
SP   1   1.00
      0.358151393            1.0000000              1.0000000
D    1   1.00
      3.5000000              1.0000000
D    1   1.00
      0.8750000              1.0000000
F    1   1.00
      1.8500000              1.0000000
****
Al     0
S    6   1.00
  13983.1000000              0.00194267
   2098.7500000              0.0148599
    477.7050000              0.0728494
    134.3600000              0.2468300
     42.8709000              0.4872580
     14.5189000              0.3234960
SP   6   1.00
    239.6680000             -0.00292619             0.00460285
     57.4419000             -0.0374080              0.0331990
     18.2859000             -0.1144870              0.1362820
      6.5991400              0.1156350              0.3304760
      2.4904900              0.6125950              0.4491460
      0.9445400              0.3937990              0.2657040
SP   3   1.00
      1.2779000             -0.2276060             -0.0175130
      0.3975900              0.00144583             0.2445330
      0.1600950              1.0927900              0.8049340
SP   1   1.00
      0.0556577              1.0000000              1.0000000
D    1   1.00
      0.6500000              1.0000000
D    1   1.00
      0.1625000              1.0000000
F    1   1.00
      0.2500000              1.0000000
****
Si     0
S    6   1.00
  16115.9000000              0.00195948
   2425.5800000              0.01492880
    553.8670000              0.07284780
    156.3400000              0.24613000
     50.0683000              0.48591400
     17.0178000              0.32500200
SP   6   1.00
    292.7180000             -0.00278094             0.00443826
     69.8731000             -0.03571460             0.03266790
     22.3363000             -0.11498500             0.13472100
      8.1503900              0.09356340             0.32867800
      3.1345800              0.60301700             0.44964000
      1.2254300              0.41895900             0.26137200
SP   3   1.00
      1.7273800             -0.24463000            -0.01779510
      0.5729220              0.00431572             0.25353900
      0.2221920              1.09818000             0.80066900
SP   1   1.00
      0.0778369              1.00000000             1.00000000
D    1   1.00
      0.9000000              1.0000000
D    1   1.00
      0.2250000              1.0000000
F    1   1.00
      0.3200000              1.0000000
****
P     0
S    6   1.00
  19413.3000000              0.0018516
   2909.4200000              0.0142062
    661.3640000              0.0699995
    185.7590000              0.2400790
     59.1943000              0.4847620
     20.0310000              0.3352000
SP   6   1.00
    339.4780000             -0.00278217             0.00456462
     81.0101000             -0.0360499              0.03369360
     25.8780000             -0.1166310              0.13975500
      9.4522100              0.0968328              0.33936200
      3.6656600              0.6144180              0.45092100
      1.4674600              0.4037980              0.23858600
SP   3   1.00
      2.1562300             -0.2529230             -0.01776530
      0.7489970              0.0328517              0.27405800
      0.2831450              1.0812500              0.78542100
SP   1   1.00
      0.0998317              1.0000000              1.00000000
D    1   1.00
      1.1000000              1.0000000
D    1   1.00
      0.2750000              1.0000000
F    1   1.00
      0.4500000              1.0000000
****
S     0
S    6   1.00
  21917.1000000              0.0018690
   3301.4900000              0.0142300
    754.1460000              0.0696960
    212.7110000              0.2384870
     67.9896000              0.4833070
     23.0515000              0.3380740
SP   6   1.00
    423.7350000             -0.0023767              0.0040610
    100.7100000             -0.0316930              0.0306810
     32.1599000             -0.1133170              0.1304520
     11.8079000              0.0560900              0.3272050
      4.6311000              0.5922550              0.4528510
      1.8702500              0.4550060              0.2560420
SP   3   1.00
      2.6158400             -0.2503740             -0.0145110
      0.9221670              0.0669570              0.3102630
      0.3412870              1.0545100              0.7544830
SP   1   1.00
      0.1171670              1.0000000              1.0000000
D    1   1.00
      1.3000000              1.0000000
D    1   1.00
      0.3250000              1.0000000
F    1   1.00
      0.5500000              1.0000000
****
Cl     0
S    6   1.00
  25180.1000000              0.0018330
   3780.3500000              0.0140340
    860.4740000              0.0690970
    242.1450000              0.2374520
     77.3349000              0.4830340
     26.2470000              0.3398560
SP   6   1.00
    491.7650000             -0.0022974              0.0039894
    116.9840000             -0.0307140              0.0303180
     37.4153000             -0.1125280              0.1298800
     13.7834000              0.0450160              0.3279510
      5.4521500              0.5893530              0.4535270
      2.2258800              0.4652060              0.2521540
SP   3   1.00
      3.1864900             -0.2518300             -0.0142990
      1.1442700              0.0615890              0.3235720
      0.4203770              1.0601800              0.7435070
SP   1   1.00
      0.1426570              1.0000000              1.0000000
D    1   1.00
      1.5000000              1.0000000
D    1   1.00
      0.3750000              1.0000000
F    1   1.00
      0.7000000              1.0000000
****
}

set {
reference uhf
freeze_core true
e_convergence 10
d_convergence 10
dft_spherical_points 1202
dft_radial_points 99
}

e = energy('b3lyp')

print_out('Grab this energy {0}'.format(e))
--------------------------------------------------------------------------

    Molecular point group: cs

    Geometry (in Bohr), charge = 0, multiplicity = 2:

       Center              X                  Y                   Z               Mass
    ------------   -----------------  -----------------  -----------------  -----------------
         C           -0.007268338552    -1.354599956819     0.000000000000    12.000000000000
         C           -0.018597204152     1.465699345081     0.000000000000    12.000000000000
         H            1.929160012748    -2.103278704419     0.000000000000     1.007825032230
         H           -0.943592537652    -2.120383941219     1.672179673000     1.007825032230
         H           -0.943592537652    -2.120383941219    -1.672179673000     1.007825032230
         H            0.133000824148     2.510602602081    -1.749957294100     1.007825032230
         H            0.133000824148     2.510602602081     1.749957294100     1.007825032230

  Charge       = 0
  Multiplicity = 2
  Basis Set: ANONYMOUSC5367084
    Blend: 6-31G_2DFP_
  Basis Set: (ANONYMOUSC5367084 AUX)
    Blend: DEF2-UNIVERSAL-JKFIT

    Orbital Energies [Eh]
    ---------------------

    Alpha Occupied:

       1Ap   -10.179545     2Ap   -10.174249     3Ap    -0.751473
       4Ap    -0.604937     1App   -0.446101     5Ap    -0.410592
       6Ap    -0.385250     2App   -0.354255     7Ap    -0.197285

    Alpha Virtual:

       8Ap     0.099025     9Ap     0.127996     3App    0.140965
      10Ap     0.165506     4App    0.203184    11Ap     0.247193
      12Ap     0.430381     5App    0.440534    13Ap     0.446218
       6App    0.450217    14Ap     0.478256    15Ap     0.520938
      16Ap     0.544188     7App    0.574429    17Ap     0.593939
       8App    0.618626    18Ap     0.633629    19Ap     0.639837
       9App    0.649796    20Ap     0.741102    10App    0.822218
      11App    0.865842    21Ap     0.932042    22Ap     0.976519
      12App    1.025870    13App    1.070897    23Ap     1.083496
      24Ap     1.086049    25Ap     1.179775    14App    1.220796
      26Ap     1.252075    15App    1.323440    27Ap     1.345612
      28Ap     1.367211    29Ap     1.420828    16App    1.445028
      17App    1.509625    30Ap     1.524327    31Ap     1.602993
      32Ap     1.764433    33Ap     1.806162    18App    1.952191
      19App    2.049376    34Ap     2.102868    35Ap     2.699056
      36Ap     2.800580    20App    2.828614    21App    2.860511
      22App    2.928714    37Ap     2.962778    38Ap     2.986618
      23App    3.080439    39Ap     3.094545    24App    3.159022
      40Ap     3.169538    25App    3.198881    26App    3.300847
      41Ap     3.356669    42Ap     3.391506    43Ap     3.493576
      27App    3.499324    28App    3.580636    44Ap     3.593474
      45Ap     3.712444    29App    3.804895    46Ap     3.974578
      47Ap     4.024121    48Ap     4.087526    49Ap     4.129861
      30App    4.189180    31App    4.198463    50Ap     4.205798
      51Ap     4.294324    32App    4.368974    33App    4.488742
      52Ap     4.501387    53Ap     4.525126    34App    4.864516
      54Ap     4.924406    35App    5.146055    55Ap     5.168434
      56Ap     5.279151    36App    5.327969

    Beta Occupied:

       1Ap   -10.175065     2Ap   -10.165599     3Ap    -0.734831
       4Ap    -0.580304     1App   -0.439960     5Ap    -0.395960
       6Ap    -0.377287     2App   -0.349808

    Beta Virtual:

       7Ap    -0.035964     8Ap     0.101678     9Ap     0.139172
       3App    0.142584    10Ap     0.170298     4App    0.206792
      11Ap     0.252958     5App    0.441598    12Ap     0.444986
       6App    0.455944    13Ap     0.459306    14Ap     0.486932
      15Ap     0.549405     7App    0.587867    16Ap     0.592454
      17Ap     0.602748     8App    0.623910    18Ap     0.641528
      19Ap     0.645550     9App    0.657245    20Ap     0.766460
      10App    0.822012    11App    0.868866    21Ap     0.949727
      22Ap     0.987647    12App    1.034683    13App    1.078723
      23Ap     1.089189    24Ap     1.102361    25Ap     1.183523
      14App    1.228455    26Ap     1.264340    15App    1.329977
      27Ap     1.353059    28Ap     1.373607    29Ap     1.426809
      16App    1.452547    17App    1.514202    30Ap     1.535570
      31Ap     1.614160    32Ap     1.770964    33Ap     1.812360
      18App    1.956611    19App    2.059339    34Ap     2.108373
      35Ap     2.722293    36Ap     2.822451    20App    2.830484
      21App    2.876562    22App    2.931247    37Ap     2.989791
      38Ap     3.023198    23App    3.093822    39Ap     3.121646
      24App    3.176824    40Ap     3.209657    25App    3.217951
      26App    3.339546    41Ap     3.370327    42Ap     3.409202
      27App    3.518709    43Ap     3.536433    28App    3.597878
      44Ap     3.603640    45Ap     3.730608    29App    3.805197
      46Ap     3.984638    47Ap     4.034050    48Ap     4.093946
      49Ap     4.139312    30App    4.202329    31App    4.204496
      50Ap     4.215112    51Ap     4.302368    32App    4.373253
      33App    4.495586    52Ap     4.511947    53Ap     4.532328
      34App    4.865876    54Ap     4.928702    35App    5.149366
      55Ap     5.179349    56Ap     5.286267    36App    5.330493

    Final Occupation by Irrep:
             Ap   App
    DOCC [     6,    2 ]
    SOCC [     1,    0 ]

  @DF-UKS Final Energy:   -79.16616453877000

   => Energetics <=

    Nuclear Repulsion Energy =             36.9252155965951374
    One-Electron Energy =                -178.0637835461281213
    Two-Electron Energy =                  72.2533638394177160
    DFT Exchange-Correlation Energy =     -10.2809604286547316
    Empirical Dispersion Energy =           0.0000000000000000
    VV10 Nonlocal Energy =                  0.0000000000000000
    Total Energy =                        -79.1661645387700048

  UHF NO Occupations:
  HONO-2 :    2App 1.9997314
  HONO-1 :    6 Ap 1.9987085
  HONO-0 :    7 Ap 1.0000000
  LUNO+0 :    8 Ap 0.0012915
  LUNO+1 :    3App 0.0002686
  LUNO+2 :    9 Ap 0.0002500
  LUNO+3 :   10 Ap 0.0002217

Computation Completed

Properties will be evaluated at   0.000000,   0.000000,   0.000000 [a0]

Properties computed using the SCF density matrix

  Nuclear Dipole Moment: [e a0]
     X:     0.1528      Y:    -0.6562      Z:     0.0000

  Electronic Dipole Moment: [e a0]
     X:    -0.1089      Y:     0.5708      Z:     0.0000

  Dipole Moment: [e a0]
     X:     0.0438      Y:    -0.0854      Z:     0.0000     Total:     0.0960

  Dipole Moment: [D]
     X:     0.1114      Y:    -0.2172      Z:     0.0000     Total:     0.2441

*** tstop() called on n045 at Fri Nov  5 18:34:09 2021
Module time:
	user time   =      64.87 seconds =       1.08 minutes
	system time =       0.47 seconds =       0.01 minutes
	total time  =         66 seconds =       1.10 minutes
Total time:
	user time   =      64.87 seconds =       1.08 minutes
	system time =       0.47 seconds =       0.01 minutes
	total time  =         66 seconds =       1.10 minutes
Grab this energy -79.16616453877
    Psi4 stopped on: Friday, 05 November 2021 06:34PM
    Psi4 wall time for execution: 0:01:05.39

*** Psi4 exiting successfully. Buy a developer a beer!
