                               Psi4 1.4a2.dev629

  ==> Input File <==

--------------------------------------------------------------------------
import os
memory 14 GB

molecule {
 C   -0.0054736445   -1.3502448537    0.0002036285
 C   -0.0194117207    1.4616467523    0.0037511111
 H    1.9276097352   -2.1061428617   -0.0011278498
 H   -0.9432120326   -2.1162743691    1.6699375746
 H   -0.9446707113   -2.1056280724   -1.6733094462
 H    0.1285152159    2.4927852923   -1.7501752245
 H    0.1276957344    2.5121678445    1.7507202065
units bohr
0 2
}

basis {

assign 6-31g_2dfp_

[ 6-31g_2dfp_ ]

spherical

!----------------------------------------------------------------------
! Basis Set Exchange
! Version v0.8.13
! https://www.basissetexchange.org
!----------------------------------------------------------------------
!   Basis set: 6-31G(2df,p)
! Description: 6-31G(2df,p)
!        Role: orbital
!     Version: 0  (Data from the original Basis Set Exchange)
!----------------------------------------------------------------------

****
H     0
S    3   1.00
     18.7311370              0.03349460
      2.8253937              0.23472695
      0.6401217              0.81375733
S    1   1.00
      0.1612778              1.00000000
P    1   1.00
      1.5000000              1.0000000
P    1   1.00
      0.3750000              1.0000000
****
B     0
S    6   1.00
   2068.8823000              0.0018663
    310.6495700              0.0142515
     70.6830330              0.0695516
     19.8610800              0.2325729
      6.2993048              0.4670787
      2.1270270              0.3634314
SP   3   1.00
      4.7279710             -0.1303938              0.0745976
      1.1903377             -0.1307889              0.3078467
      0.3594117              1.1309444              0.7434568
SP   1   1.00
      0.1267512              1.0000000              1.0000000
D    1   1.00
      0.8020000              1.0000000
D    1   1.00
      0.2005000              1.0000000
F    1   1.00
      0.5000000              1.0000000
****
C     0
S    6   1.00
   3047.5249000              0.0018347
    457.3695100              0.0140373
    103.9486900              0.0688426
     29.2101550              0.2321844
      9.2866630              0.4679413
      3.1639270              0.3623120
SP   3   1.00
      7.8682724             -0.1193324              0.0689991
      1.8812885             -0.1608542              0.3164240
      0.5442493              1.1434564              0.7443083
SP   1   1.00
      0.1687144              1.0000000              1.0000000
D    1   1.00
      1.2520000              1.0000000
D    1   1.00
      0.3130000              1.0000000
F    1   1.00
      0.8000000              1.0000000
****
N     0
S    6   1.00
   4173.5110000              0.0018348
    627.4579000              0.0139950
    142.9021000              0.0685870
     40.2343300              0.2322410
     12.8202100              0.4690700
      4.3904370              0.3604550
SP   3   1.00
     11.6263580             -0.1149610              0.0675800
      2.7162800             -0.1691180              0.3239070
      0.7722180              1.1458520              0.7408950
SP   1   1.00
      0.2120313              1.0000000              1.0000000
D    1   1.00
      1.8260000              1.0000000
D    1   1.00
      0.4565000              1.0000000
F    1   1.00
      1.0000000              1.0000000
****
O     0
S    6   1.00
   5484.6717000              0.0018311
    825.2349500              0.0139501
    188.0469600              0.0684451
     52.9645000              0.2327143
     16.8975700              0.4701930
      5.7996353              0.3585209
SP   3   1.00
     15.5396160             -0.1107775              0.0708743
      3.5999336             -0.1480263              0.3397528
      1.0137618              1.1307670              0.7271586
SP   1   1.00
      0.2700058              1.0000000              1.0000000
D    1   1.00
      2.5840000              1.0000000
D    1   1.00
      0.6460000              1.0000000
F    1   1.00
      1.4000000              1.0000000
****
F     0
S    6   1.00
   7001.7130900              0.0018196169
   1051.3660900              0.0139160796
    239.2856900              0.0684053245
     67.3974453              0.233185760
     21.5199573              0.471267439
      7.40310130             0.356618546
SP   3   1.00
     20.8479528             -0.108506975            0.0716287243
      4.80830834            -0.146451658            0.3459121030
      1.34406986             1.128688580            0.7224699570
SP   1   1.00
      0.358151393            1.0000000              1.0000000
D    1   1.00
      3.5000000              1.0000000
D    1   1.00
      0.8750000              1.0000000
F    1   1.00
      1.8500000              1.0000000
****
Al     0
S    6   1.00
  13983.1000000              0.00194267
   2098.7500000              0.0148599
    477.7050000              0.0728494
    134.3600000              0.2468300
     42.8709000              0.4872580
     14.5189000              0.3234960
SP   6   1.00
    239.6680000             -0.00292619             0.00460285
     57.4419000             -0.0374080              0.0331990
     18.2859000             -0.1144870              0.1362820
      6.5991400              0.1156350              0.3304760
      2.4904900              0.6125950              0.4491460
      0.9445400              0.3937990              0.2657040
SP   3   1.00
      1.2779000             -0.2276060             -0.0175130
      0.3975900              0.00144583             0.2445330
      0.1600950              1.0927900              0.8049340
SP   1   1.00
      0.0556577              1.0000000              1.0000000
D    1   1.00
      0.6500000              1.0000000
D    1   1.00
      0.1625000              1.0000000
F    1   1.00
      0.2500000              1.0000000
****
Si     0
S    6   1.00
  16115.9000000              0.00195948
   2425.5800000              0.01492880
    553.8670000              0.07284780
    156.3400000              0.24613000
     50.0683000              0.48591400
     17.0178000              0.32500200
SP   6   1.00
    292.7180000             -0.00278094             0.00443826
     69.8731000             -0.03571460             0.03266790
     22.3363000             -0.11498500             0.13472100
      8.1503900              0.09356340             0.32867800
      3.1345800              0.60301700             0.44964000
      1.2254300              0.41895900             0.26137200
SP   3   1.00
      1.7273800             -0.24463000            -0.01779510
      0.5729220              0.00431572             0.25353900
      0.2221920              1.09818000             0.80066900
SP   1   1.00
      0.0778369              1.00000000             1.00000000
D    1   1.00
      0.9000000              1.0000000
D    1   1.00
      0.2250000              1.0000000
F    1   1.00
      0.3200000              1.0000000
****
P     0
S    6   1.00
  19413.3000000              0.0018516
   2909.4200000              0.0142062
    661.3640000              0.0699995
    185.7590000              0.2400790
     59.1943000              0.4847620
     20.0310000              0.3352000
SP   6   1.00
    339.4780000             -0.00278217             0.00456462
     81.0101000             -0.0360499              0.03369360
     25.8780000             -0.1166310              0.13975500
      9.4522100              0.0968328              0.33936200
      3.6656600              0.6144180              0.45092100
      1.4674600              0.4037980              0.23858600
SP   3   1.00
      2.1562300             -0.2529230             -0.01776530
      0.7489970              0.0328517              0.27405800
      0.2831450              1.0812500              0.78542100
SP   1   1.00
      0.0998317              1.0000000              1.00000000
D    1   1.00
      1.1000000              1.0000000
D    1   1.00
      0.2750000              1.0000000
F    1   1.00
      0.4500000              1.0000000
****
S     0
S    6   1.00
  21917.1000000              0.0018690
   3301.4900000              0.0142300
    754.1460000              0.0696960
    212.7110000              0.2384870
     67.9896000              0.4833070
     23.0515000              0.3380740
SP   6   1.00
    423.7350000             -0.0023767              0.0040610
    100.7100000             -0.0316930              0.0306810
     32.1599000             -0.1133170              0.1304520
     11.8079000              0.0560900              0.3272050
      4.6311000              0.5922550              0.4528510
      1.8702500              0.4550060              0.2560420
SP   3   1.00
      2.6158400             -0.2503740             -0.0145110
      0.9221670              0.0669570              0.3102630
      0.3412870              1.0545100              0.7544830
SP   1   1.00
      0.1171670              1.0000000              1.0000000
D    1   1.00
      1.3000000              1.0000000
D    1   1.00
      0.3250000              1.0000000
F    1   1.00
      0.5500000              1.0000000
****
Cl     0
S    6   1.00
  25180.1000000              0.0018330
   3780.3500000              0.0140340
    860.4740000              0.0690970
    242.1450000              0.2374520
     77.3349000              0.4830340
     26.2470000              0.3398560
SP   6   1.00
    491.7650000             -0.0022974              0.0039894
    116.9840000             -0.0307140              0.0303180
     37.4153000             -0.1125280              0.1298800
     13.7834000              0.0450160              0.3279510
      5.4521500              0.5893530              0.4535270
      2.2258800              0.4652060              0.2521540
SP   3   1.00
      3.1864900             -0.2518300             -0.0142990
      1.1442700              0.0615890              0.3235720
      0.4203770              1.0601800              0.7435070
SP   1   1.00
      0.1426570              1.0000000              1.0000000
D    1   1.00
      1.5000000              1.0000000
D    1   1.00
      0.3750000              1.0000000
F    1   1.00
      0.7000000              1.0000000
****
}

set {
reference uhf
freeze_core true
e_convergence 10
d_convergence 10
dft_spherical_points 1202
dft_radial_points 99
}

e = energy('b3lyp')

print_out('Grab this energy {0}'.format(e))
--------------------------------------------------------------------------

    Molecular point group: c1

    Geometry (in Bohr), charge = 0, multiplicity = 2:

       Center              X                  Y                   Z               Mass
    ------------   -----------------  -----------------  -----------------  -----------------
         C           -0.005460878383    -1.350361158097    -0.001293358396    12.000000000000
         C           -0.019398954583     1.461530447903     0.002254124204    12.000000000000
         H            1.927622501317    -2.106259166097    -0.002624836696     1.007825032230
         H           -0.943199266483    -2.116390673497     1.668440587704     1.007825032230
         H           -0.944657945183    -2.105744376797    -1.674806433096     1.007825032230
         H            0.128527982017     2.492668987903    -1.751672211396     1.007825032230
         H            0.127708500517     2.512051540103     1.749223219604     1.007825032230

  Charge       = 0
  Multiplicity = 2
  Basis Set: ANONYMOUS2872D1F6
    Blend: 6-31G_2DFP_
  Basis Set: (ANONYMOUS2872D1F6 AUX)
    Blend: DEF2-UNIVERSAL-JKFIT

    Orbital Energies [Eh]
    ---------------------

    Alpha Occupied:

       1A    -10.178922     2A    -10.173631     3A     -0.752486
       4A     -0.604717     5A     -0.446998     6A     -0.410988
       7A     -0.385531     8A     -0.354104     9A     -0.197034

    Alpha Virtual:

      10A      0.099017    11A      0.128487    12A      0.140990
      13A      0.165915    14A      0.203573    15A      0.248256
      16A      0.430728    17A      0.440747    18A      0.446204
      19A      0.449680    20A      0.478770    21A      0.521112
      22A      0.544011    23A      0.574636    24A      0.595145
      25A      0.618813    26A      0.634479    27A      0.640159
      28A      0.651101    29A      0.741480    30A      0.823409
      31A      0.866083    32A      0.932265    33A      0.976924
      34A      1.026460    35A      1.071434    36A      1.084234
      37A      1.088060    38A      1.180152    39A      1.220634
      40A      1.253785    41A      1.323510    42A      1.346830
      43A      1.367883    44A      1.421080    45A      1.447045
      46A      1.511083    47A      1.525657    48A      1.604293
      49A      1.765875    50A      1.808528    51A      1.953443
      52A      2.050193    53A      2.108059    54A      2.699426
      55A      2.802070    56A      2.829830    57A      2.860727
      58A      2.928609    59A      2.963474    60A      2.986616
      61A      3.080220    62A      3.094116    63A      3.158716
      64A      3.171947    65A      3.199086    66A      3.300680
      67A      3.359748    68A      3.390512    69A      3.493011
      70A      3.500784    71A      3.581812    72A      3.595525
      73A      3.716890    74A      3.813035    75A      3.976523
      76A      4.025439    77A      4.088786    78A      4.132489
      79A      4.190334    80A      4.199617    81A      4.206691
      82A      4.300667    83A      4.370682    84A      4.492879
      85A      4.505971    86A      4.532290    87A      4.865881
      88A      4.925715    89A      5.146550    90A      5.173644
      91A      5.281012    92A      5.334785

    Beta Occupied:

       1A    -10.174452     2A    -10.164995     3A     -0.735789
       4A     -0.580150     5A     -0.440835     6A     -0.396168
       7A     -0.377586     8A     -0.349649

    Beta Virtual:

       9A     -0.035970    10A      0.101693    11A      0.139568
      12A      0.142620    13A      0.170789    14A      0.207164
      15A      0.253926    16A      0.441860    17A      0.444712
      18A      0.455319    19A      0.459847    20A      0.487917
      21A      0.549911    22A      0.588068    23A      0.591981
      24A      0.603818    25A      0.624106    26A      0.642443
      27A      0.645844    28A      0.658536    29A      0.766759
      30A      0.823202    31A      0.869149    32A      0.949879
      33A      0.988151    34A      1.035085    35A      1.079574
      36A      1.091613    37A      1.102627    38A      1.183775
      39A      1.228393    40A      1.266135    41A      1.329985
      42A      1.354293    43A      1.374289    44A      1.427084
      45A      1.454604    46A      1.515689    47A      1.536724
      48A      1.615731    49A      1.772474    50A      1.814840
      51A      1.957947    52A      2.060124    53A      2.113615
      54A      2.722715    55A      2.823856    56A      2.831705
      57A      2.876654    58A      2.931192    59A      2.990119
      60A      3.023488    61A      3.093845    62A      3.121368
      63A      3.176548    64A      3.211764    65A      3.218007
      66A      3.339375    67A      3.372451    68A      3.408744
      69A      3.519764    70A      3.536128    71A      3.599227
      72A      3.605857    73A      3.734992    74A      3.813386
      75A      3.986870    76A      4.034247    77A      4.095804
      78A      4.142077    79A      4.204145    80A      4.205131
      81A      4.216182    82A      4.308733    83A      4.375003
      84A      4.499927    85A      4.516573    86A      4.539578
      87A      4.867240    88A      4.930075    89A      5.149864
      90A      5.184544    91A      5.288202    92A      5.337371

    Final Occupation by Irrep:
              A
    DOCC [     8 ]
    SOCC [     1 ]

  @DF-UKS Final Energy:   -79.16614823102236

   => Energetics <=

    Nuclear Repulsion Energy =             36.9933746520821387
    One-Electron Energy =                -178.1967263318580308
    Two-Electron Energy =                  72.3207985079244651
    DFT Exchange-Correlation Energy =     -10.2835950591709313
    Empirical Dispersion Energy =           0.0000000000000000
    VV10 Nonlocal Energy =                  0.0000000000000000
    Total Energy =                        -79.1661482310223619

  UHF NO Occupations:
  HONO-2 :    7  A 1.9997333
  HONO-1 :    8  A 1.9987164
  HONO-0 :    9  A 1.0000000
  LUNO+0 :   10  A 0.0012836
  LUNO+1 :   11  A 0.0002667
  LUNO+2 :   12  A 0.0002533
  LUNO+3 :   13  A 0.0002207

Computation Completed

Properties will be evaluated at   0.000000,   0.000000,   0.000000 [a0]

Properties computed using the SCF density matrix

  Nuclear Dipole Moment: [e a0]
     X:     0.1468      Y:    -0.6567      Z:    -0.0057

  Electronic Dipole Moment: [e a0]
     X:    -0.1041      Y:     0.5714      Z:     0.0051

  Dipole Moment: [e a0]
     X:     0.0427      Y:    -0.0852      Z:    -0.0006     Total:     0.0953

  Dipole Moment: [D]
     X:     0.1085      Y:    -0.2166      Z:    -0.0016     Total:     0.2423

*** tstop() called on n070 at Fri Nov  5 19:26:14 2021
Module time:
	user time   =      51.28 seconds =       0.85 minutes
	system time =       0.69 seconds =       0.01 minutes
	total time  =         52 seconds =       0.87 minutes
Total time:
	user time   =      51.28 seconds =       0.85 minutes
	system time =       0.69 seconds =       0.01 minutes
	total time  =         52 seconds =       0.87 minutes
Grab this energy -79.16614823102236
    Psi4 stopped on: Friday, 05 November 2021 07:26PM
    Psi4 wall time for execution: 0:00:52.07

*** Psi4 exiting successfully. Buy a developer a beer!
