                               Psi4 1.4a2.dev629

  ==> Input File <==

--------------------------------------------------------------------------
import os
memory 14 GB

molecule {
 C   -0.0055276684   -1.3544793803    0.0000000000
 C   -0.0191955327    1.4594323525   -0.0000000000
 H    1.9277982584   -2.1101988225    0.0000000000
 H   -0.9443666422   -2.1153586550    1.6719496565
 H   -0.9443666422   -2.1153586550   -1.6719496565
 H    0.1283554018    2.5121364462   -1.7425538830
 H    0.1283554018    2.5121364462    1.7425538830
units bohr
0 2
}

basis {

assign 6-31g_2dfp_

[ 6-31g_2dfp_ ]

spherical

!----------------------------------------------------------------------
! Basis Set Exchange
! Version v0.8.13
! https://www.basissetexchange.org
!----------------------------------------------------------------------
!   Basis set: 6-31G(2df,p)
! Description: 6-31G(2df,p)
!        Role: orbital
!     Version: 0  (Data from the original Basis Set Exchange)
!----------------------------------------------------------------------

****
H     0
S    3   1.00
     18.7311370              0.03349460
      2.8253937              0.23472695
      0.6401217              0.81375733
S    1   1.00
      0.1612778              1.00000000
P    1   1.00
      1.5000000              1.0000000
P    1   1.00
      0.3750000              1.0000000
****
B     0
S    6   1.00
   2068.8823000              0.0018663
    310.6495700              0.0142515
     70.6830330              0.0695516
     19.8610800              0.2325729
      6.2993048              0.4670787
      2.1270270              0.3634314
SP   3   1.00
      4.7279710             -0.1303938              0.0745976
      1.1903377             -0.1307889              0.3078467
      0.3594117              1.1309444              0.7434568
SP   1   1.00
      0.1267512              1.0000000              1.0000000
D    1   1.00
      0.8020000              1.0000000
D    1   1.00
      0.2005000              1.0000000
F    1   1.00
      0.5000000              1.0000000
****
C     0
S    6   1.00
   3047.5249000              0.0018347
    457.3695100              0.0140373
    103.9486900              0.0688426
     29.2101550              0.2321844
      9.2866630              0.4679413
      3.1639270              0.3623120
SP   3   1.00
      7.8682724             -0.1193324              0.0689991
      1.8812885             -0.1608542              0.3164240
      0.5442493              1.1434564              0.7443083
SP   1   1.00
      0.1687144              1.0000000              1.0000000
D    1   1.00
      1.2520000              1.0000000
D    1   1.00
      0.3130000              1.0000000
F    1   1.00
      0.8000000              1.0000000
****
N     0
S    6   1.00
   4173.5110000              0.0018348
    627.4579000              0.0139950
    142.9021000              0.0685870
     40.2343300              0.2322410
     12.8202100              0.4690700
      4.3904370              0.3604550
SP   3   1.00
     11.6263580             -0.1149610              0.0675800
      2.7162800             -0.1691180              0.3239070
      0.7722180              1.1458520              0.7408950
SP   1   1.00
      0.2120313              1.0000000              1.0000000
D    1   1.00
      1.8260000              1.0000000
D    1   1.00
      0.4565000              1.0000000
F    1   1.00
      1.0000000              1.0000000
****
O     0
S    6   1.00
   5484.6717000              0.0018311
    825.2349500              0.0139501
    188.0469600              0.0684451
     52.9645000              0.2327143
     16.8975700              0.4701930
      5.7996353              0.3585209
SP   3   1.00
     15.5396160             -0.1107775              0.0708743
      3.5999336             -0.1480263              0.3397528
      1.0137618              1.1307670              0.7271586
SP   1   1.00
      0.2700058              1.0000000              1.0000000
D    1   1.00
      2.5840000              1.0000000
D    1   1.00
      0.6460000              1.0000000
F    1   1.00
      1.4000000              1.0000000
****
F     0
S    6   1.00
   7001.7130900              0.0018196169
   1051.3660900              0.0139160796
    239.2856900              0.0684053245
     67.3974453              0.233185760
     21.5199573              0.471267439
      7.40310130             0.356618546
SP   3   1.00
     20.8479528             -0.108506975            0.0716287243
      4.80830834            -0.146451658            0.3459121030
      1.34406986             1.128688580            0.7224699570
SP   1   1.00
      0.358151393            1.0000000              1.0000000
D    1   1.00
      3.5000000              1.0000000
D    1   1.00
      0.8750000              1.0000000
F    1   1.00
      1.8500000              1.0000000
****
Al     0
S    6   1.00
  13983.1000000              0.00194267
   2098.7500000              0.0148599
    477.7050000              0.0728494
    134.3600000              0.2468300
     42.8709000              0.4872580
     14.5189000              0.3234960
SP   6   1.00
    239.6680000             -0.00292619             0.00460285
     57.4419000             -0.0374080              0.0331990
     18.2859000             -0.1144870              0.1362820
      6.5991400              0.1156350              0.3304760
      2.4904900              0.6125950              0.4491460
      0.9445400              0.3937990              0.2657040
SP   3   1.00
      1.2779000             -0.2276060             -0.0175130
      0.3975900              0.00144583             0.2445330
      0.1600950              1.0927900              0.8049340
SP   1   1.00
      0.0556577              1.0000000              1.0000000
D    1   1.00
      0.6500000              1.0000000
D    1   1.00
      0.1625000              1.0000000
F    1   1.00
      0.2500000              1.0000000
****
Si     0
S    6   1.00
  16115.9000000              0.00195948
   2425.5800000              0.01492880
    553.8670000              0.07284780
    156.3400000              0.24613000
     50.0683000              0.48591400
     17.0178000              0.32500200
SP   6   1.00
    292.7180000             -0.00278094             0.00443826
     69.8731000             -0.03571460             0.03266790
     22.3363000             -0.11498500             0.13472100
      8.1503900              0.09356340             0.32867800
      3.1345800              0.60301700             0.44964000
      1.2254300              0.41895900             0.26137200
SP   3   1.00
      1.7273800             -0.24463000            -0.01779510
      0.5729220              0.00431572             0.25353900
      0.2221920              1.09818000             0.80066900
SP   1   1.00
      0.0778369              1.00000000             1.00000000
D    1   1.00
      0.9000000              1.0000000
D    1   1.00
      0.2250000              1.0000000
F    1   1.00
      0.3200000              1.0000000
****
P     0
S    6   1.00
  19413.3000000              0.0018516
   2909.4200000              0.0142062
    661.3640000              0.0699995
    185.7590000              0.2400790
     59.1943000              0.4847620
     20.0310000              0.3352000
SP   6   1.00
    339.4780000             -0.00278217             0.00456462
     81.0101000             -0.0360499              0.03369360
     25.8780000             -0.1166310              0.13975500
      9.4522100              0.0968328              0.33936200
      3.6656600              0.6144180              0.45092100
      1.4674600              0.4037980              0.23858600
SP   3   1.00
      2.1562300             -0.2529230             -0.01776530
      0.7489970              0.0328517              0.27405800
      0.2831450              1.0812500              0.78542100
SP   1   1.00
      0.0998317              1.0000000              1.00000000
D    1   1.00
      1.1000000              1.0000000
D    1   1.00
      0.2750000              1.0000000
F    1   1.00
      0.4500000              1.0000000
****
S     0
S    6   1.00
  21917.1000000              0.0018690
   3301.4900000              0.0142300
    754.1460000              0.0696960
    212.7110000              0.2384870
     67.9896000              0.4833070
     23.0515000              0.3380740
SP   6   1.00
    423.7350000             -0.0023767              0.0040610
    100.7100000             -0.0316930              0.0306810
     32.1599000             -0.1133170              0.1304520
     11.8079000              0.0560900              0.3272050
      4.6311000              0.5922550              0.4528510
      1.8702500              0.4550060              0.2560420
SP   3   1.00
      2.6158400             -0.2503740             -0.0145110
      0.9221670              0.0669570              0.3102630
      0.3412870              1.0545100              0.7544830
SP   1   1.00
      0.1171670              1.0000000              1.0000000
D    1   1.00
      1.3000000              1.0000000
D    1   1.00
      0.3250000              1.0000000
F    1   1.00
      0.5500000              1.0000000
****
Cl     0
S    6   1.00
  25180.1000000              0.0018330
   3780.3500000              0.0140340
    860.4740000              0.0690970
    242.1450000              0.2374520
     77.3349000              0.4830340
     26.2470000              0.3398560
SP   6   1.00
    491.7650000             -0.0022974              0.0039894
    116.9840000             -0.0307140              0.0303180
     37.4153000             -0.1125280              0.1298800
     13.7834000              0.0450160              0.3279510
      5.4521500              0.5893530              0.4535270
      2.2258800              0.4652060              0.2521540
SP   3   1.00
      3.1864900             -0.2518300             -0.0142990
      1.1442700              0.0615890              0.3235720
      0.4203770              1.0601800              0.7435070
SP   1   1.00
      0.1426570              1.0000000              1.0000000
D    1   1.00
      1.5000000              1.0000000
D    1   1.00
      0.3750000              1.0000000
F    1   1.00
      0.7000000              1.0000000
****
}

set {
reference uhf
freeze_core true
e_convergence 10
d_convergence 10
dft_spherical_points 1202
dft_radial_points 99
}

e = energy('b3lyp')

print_out('Grab this energy {0}'.format(e))
--------------------------------------------------------------------------

    Molecular point group: cs

    Geometry (in Bohr), charge = 0, multiplicity = 2:

       Center              X                  Y                   Z               Mass
    ------------   -----------------  -----------------  -----------------  -----------------
         C           -0.005576286235    -1.352154573712     0.000000000000    12.000000000000
         C           -0.019244150535     1.461757159088     0.000000000000    12.000000000000
         H            1.927749640565    -2.107874015912     0.000000000000     1.007825032230
         H           -0.944415260035    -2.113033848412     1.671949656500     1.007825032230
         H           -0.944415260035    -2.113033848412    -1.671949656500     1.007825032230
         H            0.128306783965     2.514461252788    -1.742553883000     1.007825032230
         H            0.128306783965     2.514461252788     1.742553883000     1.007825032230

  Charge       = 0
  Multiplicity = 2
  Basis Set: ANONYMOUSC5994CA1
    Blend: 6-31G_2DFP_
  Basis Set: (ANONYMOUSC5994CA1 AUX)
    Blend: DEF2-UNIVERSAL-JKFIT

    Orbital Energies [Eh]
    ---------------------

    Alpha Occupied:

       1Ap   -10.178927     2Ap   -10.174051     3Ap    -0.752214
       4Ap    -0.605170     1App   -0.446206     5Ap    -0.411004
       6Ap    -0.386241     2App   -0.353865     7Ap    -0.197097

    Alpha Virtual:

       8Ap     0.099304     9Ap     0.128273     3App    0.140925
      10Ap     0.165721     4App    0.203620    11Ap     0.248451
      12Ap     0.430717     5App    0.440946    13Ap     0.445683
       6App    0.449732    14Ap     0.479034    15Ap     0.521139
      16Ap     0.543797     7App    0.574971    17Ap     0.595609
       8App    0.618852    18Ap     0.634251    19Ap     0.640009
       9App    0.650478    20Ap     0.741192    10App    0.823769
      11App    0.865845    21Ap     0.931666    22Ap     0.979080
      12App    1.024471    13App    1.072956    23Ap     1.082379
      24Ap     1.087982    25Ap     1.179669    14App    1.219359
      26Ap     1.254524    15App    1.324363    27Ap     1.346622
      28Ap     1.368125    29Ap     1.421328    16App    1.446529
      17App    1.510888    30Ap     1.526813    31Ap     1.605743
      32Ap     1.764924    33Ap     1.807810    18App    1.952599
      19App    2.055587    34Ap     2.101944    35Ap     2.699033
      36Ap     2.803021    20App    2.829892    21App    2.861111
      22App    2.928713    37Ap     2.963252    38Ap     2.986321
      23App    3.079187    39Ap     3.093474    24App    3.156544
      40Ap     3.171899    25App    3.199661    26App    3.299200
      41Ap     3.359323    42Ap     3.389788    43Ap     3.493541
      27App    3.499755    28App    3.583357    44Ap     3.595778
      45Ap     3.714157    29App    3.807201    46Ap     3.976124
      47Ap     4.026852    48Ap     4.093198    49Ap     4.130084
      30App    4.192896    31App    4.198985    50Ap     4.206139
      51Ap     4.294688    32App    4.370402    33App    4.493547
      52Ap     4.504476    53Ap     4.531835    34App    4.868608
      54Ap     4.926221    35App    5.156676    55Ap     5.167258
      56Ap     5.280076    36App    5.331132

    Beta Occupied:

       1Ap   -10.174873     2Ap   -10.164997     3Ap    -0.735540
       4Ap    -0.580592     1App   -0.440078     5Ap    -0.396237
       6Ap    -0.378308     2App   -0.349358

    Beta Virtual:

       7Ap    -0.035968     8Ap     0.101893     9Ap     0.139433
       3App    0.142551    10Ap     0.170574     4App    0.207221
      11Ap     0.254159     5App    0.442039    12Ap     0.444879
       6App    0.455406    13Ap     0.459002    14Ap     0.488207
      15Ap     0.549550     7App    0.588414    16Ap     0.592167
      17Ap     0.604227     8App    0.624240    18Ap     0.642083
      19Ap     0.645841     9App    0.657933    20Ap     0.766496
      10App    0.823602    11App    0.868903    21Ap     0.949304
      22Ap     0.990342    12App    1.033150    13App    1.080818
      23Ap     1.086785    24Ap     1.105659    25Ap     1.183327
      14App    1.227095    26Ap     1.266928    15App    1.330841
      27Ap     1.354176    28Ap     1.374466    29Ap     1.427326
      16App    1.454004    17App    1.515483    30Ap     1.538453
      31Ap     1.616430    32Ap     1.771543    33Ap     1.814028
      18App    1.957053    19App    2.065649    34Ap     2.107497
      35Ap     2.722264    36Ap     2.824812    20App    2.831807
      21App    2.877074    22App    2.931251    37Ap     2.990087
      38Ap     3.023036    23App    3.092777    39Ap     3.120941
      24App    3.174133    40Ap     3.211852    25App    3.218040
      26App    3.338316    41Ap     3.371720    42Ap     3.408652
      27App    3.519213    43Ap     3.536427    28App    3.600540
      44Ap     3.605868    45Ap     3.732203    29App    3.807542
      46Ap     3.986201    47Ap     4.037038    48Ap     4.099157
      49Ap     4.139541    30App    4.202955    31App    4.208077
      50Ap     4.215633    51Ap     4.302717    32App    4.374725
      33App    4.500646    52Ap     4.515299    53Ap     4.538974
      34App    4.869990    54Ap     4.930549    35App    5.160039
      55Ap     5.178220    56Ap     5.287238    36App    5.333689

    Final Occupation by Irrep:
             Ap   App
    DOCC [     6,    2 ]
    SOCC [     1,    0 ]

  @DF-UKS Final Energy:   -79.16616235779505

   => Energetics <=

    Nuclear Repulsion Energy =             36.9748898176725902
    One-Electron Energy =                -178.1593333613114396
    Two-Electron Energy =                  72.3014694384908267
    DFT Exchange-Correlation Energy =     -10.2831882526470171
    Empirical Dispersion Energy =           0.0000000000000000
    VV10 Nonlocal Energy =                  0.0000000000000000
    Total Energy =                        -79.1661623577950451

  UHF NO Occupations:
  HONO-2 :    2App 1.9997318
  HONO-1 :    6 Ap 1.9987158
  HONO-0 :    7 Ap 1.0000000
  LUNO+0 :    8 Ap 0.0012842
  LUNO+1 :    3App 0.0002682
  LUNO+2 :    9 Ap 0.0002518
  LUNO+3 :   10 Ap 0.0002199

Computation Completed

Properties will be evaluated at   0.000000,   0.000000,   0.000000 [a0]

Properties computed using the SCF density matrix

  Nuclear Dipole Moment: [e a0]
     X:     0.1466      Y:    -0.6474      Z:     0.0000

  Electronic Dipole Moment: [e a0]
     X:    -0.1041      Y:     0.5621      Z:     0.0000

  Dipole Moment: [e a0]
     X:     0.0425      Y:    -0.0853      Z:     0.0000     Total:     0.0953

  Dipole Moment: [D]
     X:     0.1081      Y:    -0.2168      Z:     0.0000     Total:     0.2422

*** tstop() called on n044 at Fri Nov  5 18:55:35 2021
Module time:
	user time   =      61.72 seconds =       1.03 minutes
	system time =       0.43 seconds =       0.01 minutes
	total time  =         62 seconds =       1.03 minutes
Total time:
	user time   =      61.72 seconds =       1.03 minutes
	system time =       0.43 seconds =       0.01 minutes
	total time  =         62 seconds =       1.03 minutes
Grab this energy -79.16616235779505
    Psi4 stopped on: Friday, 05 November 2021 06:55PM
    Psi4 wall time for execution: 0:01:02.19

*** Psi4 exiting successfully. Buy a developer a beer!
