                               Psi4 1.4a2.dev629

  ==> Input File <==

--------------------------------------------------------------------------
import os
memory 14 GB

molecule {
 C   -0.0064566461   -1.3544809519   -0.0017010473
 C   -0.0184155414    1.4656527689   -0.0001322990
 H    1.9272280949   -2.1032910355   -0.0046245349
 H   -0.9502491352   -2.1207889123    1.6748116401
 H   -0.9421493701   -2.1200470853   -1.6687693161
 H    0.1308370611    2.5102400209   -1.7497968139
 H    0.1302581133    2.5110249274    1.7502123711
units bohr
0 2
}

basis {

assign 6-31g_2dfp_

[ 6-31g_2dfp_ ]

spherical

!----------------------------------------------------------------------
! Basis Set Exchange
! Version v0.8.13
! https://www.basissetexchange.org
!----------------------------------------------------------------------
!   Basis set: 6-31G(2df,p)
! Description: 6-31G(2df,p)
!        Role: orbital
!     Version: 0  (Data from the original Basis Set Exchange)
!----------------------------------------------------------------------

****
H     0
S    3   1.00
     18.7311370              0.03349460
      2.8253937              0.23472695
      0.6401217              0.81375733
S    1   1.00
      0.1612778              1.00000000
P    1   1.00
      1.5000000              1.0000000
P    1   1.00
      0.3750000              1.0000000
****
B     0
S    6   1.00
   2068.8823000              0.0018663
    310.6495700              0.0142515
     70.6830330              0.0695516
     19.8610800              0.2325729
      6.2993048              0.4670787
      2.1270270              0.3634314
SP   3   1.00
      4.7279710             -0.1303938              0.0745976
      1.1903377             -0.1307889              0.3078467
      0.3594117              1.1309444              0.7434568
SP   1   1.00
      0.1267512              1.0000000              1.0000000
D    1   1.00
      0.8020000              1.0000000
D    1   1.00
      0.2005000              1.0000000
F    1   1.00
      0.5000000              1.0000000
****
C     0
S    6   1.00
   3047.5249000              0.0018347
    457.3695100              0.0140373
    103.9486900              0.0688426
     29.2101550              0.2321844
      9.2866630              0.4679413
      3.1639270              0.3623120
SP   3   1.00
      7.8682724             -0.1193324              0.0689991
      1.8812885             -0.1608542              0.3164240
      0.5442493              1.1434564              0.7443083
SP   1   1.00
      0.1687144              1.0000000              1.0000000
D    1   1.00
      1.2520000              1.0000000
D    1   1.00
      0.3130000              1.0000000
F    1   1.00
      0.8000000              1.0000000
****
N     0
S    6   1.00
   4173.5110000              0.0018348
    627.4579000              0.0139950
    142.9021000              0.0685870
     40.2343300              0.2322410
     12.8202100              0.4690700
      4.3904370              0.3604550
SP   3   1.00
     11.6263580             -0.1149610              0.0675800
      2.7162800             -0.1691180              0.3239070
      0.7722180              1.1458520              0.7408950
SP   1   1.00
      0.2120313              1.0000000              1.0000000
D    1   1.00
      1.8260000              1.0000000
D    1   1.00
      0.4565000              1.0000000
F    1   1.00
      1.0000000              1.0000000
****
O     0
S    6   1.00
   5484.6717000              0.0018311
    825.2349500              0.0139501
    188.0469600              0.0684451
     52.9645000              0.2327143
     16.8975700              0.4701930
      5.7996353              0.3585209
SP   3   1.00
     15.5396160             -0.1107775              0.0708743
      3.5999336             -0.1480263              0.3397528
      1.0137618              1.1307670              0.7271586
SP   1   1.00
      0.2700058              1.0000000              1.0000000
D    1   1.00
      2.5840000              1.0000000
D    1   1.00
      0.6460000              1.0000000
F    1   1.00
      1.4000000              1.0000000
****
F     0
S    6   1.00
   7001.7130900              0.0018196169
   1051.3660900              0.0139160796
    239.2856900              0.0684053245
     67.3974453              0.233185760
     21.5199573              0.471267439
      7.40310130             0.356618546
SP   3   1.00
     20.8479528             -0.108506975            0.0716287243
      4.80830834            -0.146451658            0.3459121030
      1.34406986             1.128688580            0.7224699570
SP   1   1.00
      0.358151393            1.0000000              1.0000000
D    1   1.00
      3.5000000              1.0000000
D    1   1.00
      0.8750000              1.0000000
F    1   1.00
      1.8500000              1.0000000
****
Al     0
S    6   1.00
  13983.1000000              0.00194267
   2098.7500000              0.0148599
    477.7050000              0.0728494
    134.3600000              0.2468300
     42.8709000              0.4872580
     14.5189000              0.3234960
SP   6   1.00
    239.6680000             -0.00292619             0.00460285
     57.4419000             -0.0374080              0.0331990
     18.2859000             -0.1144870              0.1362820
      6.5991400              0.1156350              0.3304760
      2.4904900              0.6125950              0.4491460
      0.9445400              0.3937990              0.2657040
SP   3   1.00
      1.2779000             -0.2276060             -0.0175130
      0.3975900              0.00144583             0.2445330
      0.1600950              1.0927900              0.8049340
SP   1   1.00
      0.0556577              1.0000000              1.0000000
D    1   1.00
      0.6500000              1.0000000
D    1   1.00
      0.1625000              1.0000000
F    1   1.00
      0.2500000              1.0000000
****
Si     0
S    6   1.00
  16115.9000000              0.00195948
   2425.5800000              0.01492880
    553.8670000              0.07284780
    156.3400000              0.24613000
     50.0683000              0.48591400
     17.0178000              0.32500200
SP   6   1.00
    292.7180000             -0.00278094             0.00443826
     69.8731000             -0.03571460             0.03266790
     22.3363000             -0.11498500             0.13472100
      8.1503900              0.09356340             0.32867800
      3.1345800              0.60301700             0.44964000
      1.2254300              0.41895900             0.26137200
SP   3   1.00
      1.7273800             -0.24463000            -0.01779510
      0.5729220              0.00431572             0.25353900
      0.2221920              1.09818000             0.80066900
SP   1   1.00
      0.0778369              1.00000000             1.00000000
D    1   1.00
      0.9000000              1.0000000
D    1   1.00
      0.2250000              1.0000000
F    1   1.00
      0.3200000              1.0000000
****
P     0
S    6   1.00
  19413.3000000              0.0018516
   2909.4200000              0.0142062
    661.3640000              0.0699995
    185.7590000              0.2400790
     59.1943000              0.4847620
     20.0310000              0.3352000
SP   6   1.00
    339.4780000             -0.00278217             0.00456462
     81.0101000             -0.0360499              0.03369360
     25.8780000             -0.1166310              0.13975500
      9.4522100              0.0968328              0.33936200
      3.6656600              0.6144180              0.45092100
      1.4674600              0.4037980              0.23858600
SP   3   1.00
      2.1562300             -0.2529230             -0.01776530
      0.7489970              0.0328517              0.27405800
      0.2831450              1.0812500              0.78542100
SP   1   1.00
      0.0998317              1.0000000              1.00000000
D    1   1.00
      1.1000000              1.0000000
D    1   1.00
      0.2750000              1.0000000
F    1   1.00
      0.4500000              1.0000000
****
S     0
S    6   1.00
  21917.1000000              0.0018690
   3301.4900000              0.0142300
    754.1460000              0.0696960
    212.7110000              0.2384870
     67.9896000              0.4833070
     23.0515000              0.3380740
SP   6   1.00
    423.7350000             -0.0023767              0.0040610
    100.7100000             -0.0316930              0.0306810
     32.1599000             -0.1133170              0.1304520
     11.8079000              0.0560900              0.3272050
      4.6311000              0.5922550              0.4528510
      1.8702500              0.4550060              0.2560420
SP   3   1.00
      2.6158400             -0.2503740             -0.0145110
      0.9221670              0.0669570              0.3102630
      0.3412870              1.0545100              0.7544830
SP   1   1.00
      0.1171670              1.0000000              1.0000000
D    1   1.00
      1.3000000              1.0000000
D    1   1.00
      0.3250000              1.0000000
F    1   1.00
      0.5500000              1.0000000
****
Cl     0
S    6   1.00
  25180.1000000              0.0018330
   3780.3500000              0.0140340
    860.4740000              0.0690970
    242.1450000              0.2374520
     77.3349000              0.4830340
     26.2470000              0.3398560
SP   6   1.00
    491.7650000             -0.0022974              0.0039894
    116.9840000             -0.0307140              0.0303180
     37.4153000             -0.1125280              0.1298800
     13.7834000              0.0450160              0.3279510
      5.4521500              0.5893530              0.4535270
      2.2258800              0.4652060              0.2521540
SP   3   1.00
      3.1864900             -0.2518300             -0.0142990
      1.1442700              0.0615890              0.3235720
      0.4203770              1.0601800              0.7435070
SP   1   1.00
      0.1426570              1.0000000              1.0000000
D    1   1.00
      1.5000000              1.0000000
D    1   1.00
      0.3750000              1.0000000
F    1   1.00
      0.7000000              1.0000000
****
}

set {
reference uhf
freeze_core true
e_convergence 10
d_convergence 10
dft_spherical_points 1202
dft_radial_points 99
}

e = energy('b3lyp')

print_out('Grab this energy {0}'.format(e))
--------------------------------------------------------------------------

    Molecular point group: c1

    Geometry (in Bohr), charge = 0, multiplicity = 2:

       Center              X                  Y                   Z               Mass
    ------------   -----------------  -----------------  -----------------  -----------------
         C           -0.006448868139    -1.354510163550    -0.001007071046    12.000000000000
         C           -0.018407763439     1.465623557250     0.000561677254    12.000000000000
         H            1.927235872861    -2.103320247150    -0.003930558646     1.007825032230
         H           -0.950241357239    -2.120818123950     1.675505616354     1.007825032230
         H           -0.942141592139    -2.120076296950    -1.668075339846     1.007825032230
         H            0.130844839061     2.510210809250    -1.749102837646     1.007825032230
         H            0.130265891261     2.510995715750     1.750906347354     1.007825032230

  Charge       = 0
  Multiplicity = 2
  Basis Set: ANONYMOUS203C6FE7
    Blend: 6-31G_2DFP_
  Basis Set: (ANONYMOUS203C6FE7 AUX)
    Blend: DEF2-UNIVERSAL-JKFIT

    Orbital Energies [Eh]
    ---------------------

    Alpha Occupied:

       1A    -10.179530     2A    -10.174233     3A     -0.751488
       4A     -0.604941     5A     -0.445975     6A     -0.410896
       7A     -0.385268     8A     -0.354031     9A     -0.197311

    Alpha Virtual:

      10A      0.099034    11A      0.128009    12A      0.140766
      13A      0.165744    14A      0.203185    15A      0.247186
      16A      0.430346    17A      0.440615    18A      0.446234
      19A      0.450357    20A      0.478272    21A      0.520932
      22A      0.544145    23A      0.574296    24A      0.593971
      25A      0.618427    26A      0.634094    27A      0.639667
      28A      0.649831    29A      0.741107    30A      0.822228
      31A      0.865886    32A      0.932028    33A      0.976496
      34A      1.025712    35A      1.071074    36A      1.083276
      37A      1.085683    38A      1.180592    39A      1.220441
      40A      1.252391    41A      1.323019    42A      1.345442
      43A      1.367837    44A      1.421058    45A      1.444970
      46A      1.509731    47A      1.523976    48A      1.602965
      49A      1.765144    50A      1.805804    51A      1.951611
      52A      2.049469    53A      2.103467    54A      2.699169
      55A      2.800653    56A      2.828427    57A      2.860328
      58A      2.928874    59A      2.962914    60A      2.986558
      61A      3.080140    62A      3.094358    63A      3.159385
      64A      3.169976    65A      3.199096    66A      3.300436
      67A      3.356194    68A      3.391436    69A      3.493844
      70A      3.499246    71A      3.579966    72A      3.594077
      73A      3.712262    74A      3.805642    75A      3.974618
      76A      4.024103    77A      4.087449    78A      4.129868
      79A      4.189267    80A      4.197843    81A      4.205988
      82A      4.294463    83A      4.368540    84A      4.488641
      85A      4.503346    86A      4.524843    87A      4.864326
      88A      4.924442    89A      5.145691    90A      5.168897
      91A      5.278669    92A      5.328298

    Beta Occupied:

       1A    -10.175048     2A    -10.165582     3A     -0.734835
       4A     -0.580303     5A     -0.439815     6A     -0.396302
       7A     -0.377304     8A     -0.349601

    Beta Virtual:

       9A     -0.035958    10A      0.101682    11A      0.139190
      12A      0.142383    13A      0.170516    14A      0.206794
      15A      0.252943    16A      0.441664    17A      0.444961
      18A      0.456071    19A      0.459294    20A      0.487013
      21A      0.549377    22A      0.587646    23A      0.592461
      24A      0.602805    25A      0.623788    26A      0.641947
      27A      0.645401    28A      0.657270    29A      0.766462
      30A      0.822021    31A      0.868901    32A      0.949661
      33A      0.987626    34A      1.034454    35A      1.078962
      36A      1.089062    37A      1.101929    38A      1.184311
      39A      1.228162    40A      1.264682    41A      1.329475
      42A      1.352950    43A      1.374199    44A      1.427035
      45A      1.452507    46A      1.514316    47A      1.535217
      48A      1.614075    49A      1.771617    50A      1.812057
      51A      1.956040    52A      2.059431    53A      2.108968
      54A      2.722432    55A      2.822526    56A      2.830252
      57A      2.876445    58A      2.931411    59A      2.989918
      60A      3.023163    61A      3.093543    62A      3.121478
      63A      3.177146    64A      3.210071    65A      3.218210
      66A      3.339197    67A      3.369548    68A      3.409443
      69A      3.518573    70A      3.536704    71A      3.597036
      72A      3.604384    73A      3.730413    74A      3.805997
      75A      3.984697    76A      4.033945    77A      4.093884
      78A      4.139327    79A      4.202204    80A      4.204072
      81A      4.215211    82A      4.302491    83A      4.372807
      84A      4.495572    85A      4.513881    86A      4.532070
      87A      4.865683    88A      4.928696    89A      5.148998
      90A      5.179813    91A      5.285765    92A      5.330867

    Final Occupation by Irrep:
              A
    DOCC [     8 ]
    SOCC [     1 ]

  @DF-UKS Final Energy:   -79.16614769760969

   => Energetics <=

    Nuclear Repulsion Energy =             36.9262987910443954
    One-Electron Energy =                -178.0659125606417490
    Two-Electron Energy =                  72.2544861725127703
    DFT Exchange-Correlation Energy =     -10.2810201005250992
    Empirical Dispersion Energy =           0.0000000000000000
    VV10 Nonlocal Energy =                  0.0000000000000000
    Total Energy =                        -79.1661476976096878

  UHF NO Occupations:
  HONO-2 :    7  A 1.9997313
  HONO-1 :    8  A 1.9987074
  HONO-0 :    9  A 1.0000000
  LUNO+0 :   10  A 0.0012926
  LUNO+1 :   11  A 0.0002687
  LUNO+2 :   12  A 0.0002483
  LUNO+3 :   13  A 0.0002212

Computation Completed

Properties will be evaluated at   0.000000,   0.000000,   0.000000 [a0]

Properties computed using the SCF density matrix

  Nuclear Dipole Moment: [e a0]
     X:     0.1468      Y:    -0.6563      Z:     0.0026

  Electronic Dipole Moment: [e a0]
     X:    -0.1034      Y:     0.5711      Z:    -0.0042

  Dipole Moment: [e a0]
     X:     0.0434      Y:    -0.0852      Z:    -0.0015     Total:     0.0957

  Dipole Moment: [D]
     X:     0.1104      Y:    -0.2167      Z:    -0.0039     Total:     0.2432

*** tstop() called on n067 at Fri Nov  5 19:14:53 2021
Module time:
	user time   =      50.32 seconds =       0.84 minutes
	system time =       0.61 seconds =       0.01 minutes
	total time  =         51 seconds =       0.85 minutes
Total time:
	user time   =      50.32 seconds =       0.84 minutes
	system time =       0.61 seconds =       0.01 minutes
	total time  =         51 seconds =       0.85 minutes
Grab this energy -79.16614769760969
    Psi4 stopped on: Friday, 05 November 2021 07:14PM
    Psi4 wall time for execution: 0:00:50.96

*** Psi4 exiting successfully. Buy a developer a beer!
