                               Psi4 1.4a2.dev629

  ==> Input File <==

--------------------------------------------------------------------------
import os
memory 14 GB

molecule {
 C   -0.0072037410   -1.3544029104    0.0025349137
 C   -0.0197902308    1.4655674939   -0.0008788285
 H    1.9337636718   -2.1122752818   -0.0009692145
 H   -0.9464689175   -2.1159089475    1.6676093460
 H   -0.9459010482   -2.1157451236   -1.6684882802
 H    0.1283439735    2.5105539692   -1.7493749648
 H    0.1283088685    2.5105205323    1.7495670285
units bohr
0 2
}

basis {

assign 6-31g_2dfp_

[ 6-31g_2dfp_ ]

spherical

!----------------------------------------------------------------------
! Basis Set Exchange
! Version v0.8.13
! https://www.basissetexchange.org
!----------------------------------------------------------------------
!   Basis set: 6-31G(2df,p)
! Description: 6-31G(2df,p)
!        Role: orbital
!     Version: 0  (Data from the original Basis Set Exchange)
!----------------------------------------------------------------------

****
H     0
S    3   1.00
     18.7311370              0.03349460
      2.8253937              0.23472695
      0.6401217              0.81375733
S    1   1.00
      0.1612778              1.00000000
P    1   1.00
      1.5000000              1.0000000
P    1   1.00
      0.3750000              1.0000000
****
B     0
S    6   1.00
   2068.8823000              0.0018663
    310.6495700              0.0142515
     70.6830330              0.0695516
     19.8610800              0.2325729
      6.2993048              0.4670787
      2.1270270              0.3634314
SP   3   1.00
      4.7279710             -0.1303938              0.0745976
      1.1903377             -0.1307889              0.3078467
      0.3594117              1.1309444              0.7434568
SP   1   1.00
      0.1267512              1.0000000              1.0000000
D    1   1.00
      0.8020000              1.0000000
D    1   1.00
      0.2005000              1.0000000
F    1   1.00
      0.5000000              1.0000000
****
C     0
S    6   1.00
   3047.5249000              0.0018347
    457.3695100              0.0140373
    103.9486900              0.0688426
     29.2101550              0.2321844
      9.2866630              0.4679413
      3.1639270              0.3623120
SP   3   1.00
      7.8682724             -0.1193324              0.0689991
      1.8812885             -0.1608542              0.3164240
      0.5442493              1.1434564              0.7443083
SP   1   1.00
      0.1687144              1.0000000              1.0000000
D    1   1.00
      1.2520000              1.0000000
D    1   1.00
      0.3130000              1.0000000
F    1   1.00
      0.8000000              1.0000000
****
N     0
S    6   1.00
   4173.5110000              0.0018348
    627.4579000              0.0139950
    142.9021000              0.0685870
     40.2343300              0.2322410
     12.8202100              0.4690700
      4.3904370              0.3604550
SP   3   1.00
     11.6263580             -0.1149610              0.0675800
      2.7162800             -0.1691180              0.3239070
      0.7722180              1.1458520              0.7408950
SP   1   1.00
      0.2120313              1.0000000              1.0000000
D    1   1.00
      1.8260000              1.0000000
D    1   1.00
      0.4565000              1.0000000
F    1   1.00
      1.0000000              1.0000000
****
O     0
S    6   1.00
   5484.6717000              0.0018311
    825.2349500              0.0139501
    188.0469600              0.0684451
     52.9645000              0.2327143
     16.8975700              0.4701930
      5.7996353              0.3585209
SP   3   1.00
     15.5396160             -0.1107775              0.0708743
      3.5999336             -0.1480263              0.3397528
      1.0137618              1.1307670              0.7271586
SP   1   1.00
      0.2700058              1.0000000              1.0000000
D    1   1.00
      2.5840000              1.0000000
D    1   1.00
      0.6460000              1.0000000
F    1   1.00
      1.4000000              1.0000000
****
F     0
S    6   1.00
   7001.7130900              0.0018196169
   1051.3660900              0.0139160796
    239.2856900              0.0684053245
     67.3974453              0.233185760
     21.5199573              0.471267439
      7.40310130             0.356618546
SP   3   1.00
     20.8479528             -0.108506975            0.0716287243
      4.80830834            -0.146451658            0.3459121030
      1.34406986             1.128688580            0.7224699570
SP   1   1.00
      0.358151393            1.0000000              1.0000000
D    1   1.00
      3.5000000              1.0000000
D    1   1.00
      0.8750000              1.0000000
F    1   1.00
      1.8500000              1.0000000
****
Al     0
S    6   1.00
  13983.1000000              0.00194267
   2098.7500000              0.0148599
    477.7050000              0.0728494
    134.3600000              0.2468300
     42.8709000              0.4872580
     14.5189000              0.3234960
SP   6   1.00
    239.6680000             -0.00292619             0.00460285
     57.4419000             -0.0374080              0.0331990
     18.2859000             -0.1144870              0.1362820
      6.5991400              0.1156350              0.3304760
      2.4904900              0.6125950              0.4491460
      0.9445400              0.3937990              0.2657040
SP   3   1.00
      1.2779000             -0.2276060             -0.0175130
      0.3975900              0.00144583             0.2445330
      0.1600950              1.0927900              0.8049340
SP   1   1.00
      0.0556577              1.0000000              1.0000000
D    1   1.00
      0.6500000              1.0000000
D    1   1.00
      0.1625000              1.0000000
F    1   1.00
      0.2500000              1.0000000
****
Si     0
S    6   1.00
  16115.9000000              0.00195948
   2425.5800000              0.01492880
    553.8670000              0.07284780
    156.3400000              0.24613000
     50.0683000              0.48591400
     17.0178000              0.32500200
SP   6   1.00
    292.7180000             -0.00278094             0.00443826
     69.8731000             -0.03571460             0.03266790
     22.3363000             -0.11498500             0.13472100
      8.1503900              0.09356340             0.32867800
      3.1345800              0.60301700             0.44964000
      1.2254300              0.41895900             0.26137200
SP   3   1.00
      1.7273800             -0.24463000            -0.01779510
      0.5729220              0.00431572             0.25353900
      0.2221920              1.09818000             0.80066900
SP   1   1.00
      0.0778369              1.00000000             1.00000000
D    1   1.00
      0.9000000              1.0000000
D    1   1.00
      0.2250000              1.0000000
F    1   1.00
      0.3200000              1.0000000
****
P     0
S    6   1.00
  19413.3000000              0.0018516
   2909.4200000              0.0142062
    661.3640000              0.0699995
    185.7590000              0.2400790
     59.1943000              0.4847620
     20.0310000              0.3352000
SP   6   1.00
    339.4780000             -0.00278217             0.00456462
     81.0101000             -0.0360499              0.03369360
     25.8780000             -0.1166310              0.13975500
      9.4522100              0.0968328              0.33936200
      3.6656600              0.6144180              0.45092100
      1.4674600              0.4037980              0.23858600
SP   3   1.00
      2.1562300             -0.2529230             -0.01776530
      0.7489970              0.0328517              0.27405800
      0.2831450              1.0812500              0.78542100
SP   1   1.00
      0.0998317              1.0000000              1.00000000
D    1   1.00
      1.1000000              1.0000000
D    1   1.00
      0.2750000              1.0000000
F    1   1.00
      0.4500000              1.0000000
****
S     0
S    6   1.00
  21917.1000000              0.0018690
   3301.4900000              0.0142300
    754.1460000              0.0696960
    212.7110000              0.2384870
     67.9896000              0.4833070
     23.0515000              0.3380740
SP   6   1.00
    423.7350000             -0.0023767              0.0040610
    100.7100000             -0.0316930              0.0306810
     32.1599000             -0.1133170              0.1304520
     11.8079000              0.0560900              0.3272050
      4.6311000              0.5922550              0.4528510
      1.8702500              0.4550060              0.2560420
SP   3   1.00
      2.6158400             -0.2503740             -0.0145110
      0.9221670              0.0669570              0.3102630
      0.3412870              1.0545100              0.7544830
SP   1   1.00
      0.1171670              1.0000000              1.0000000
D    1   1.00
      1.3000000              1.0000000
D    1   1.00
      0.3250000              1.0000000
F    1   1.00
      0.5500000              1.0000000
****
Cl     0
S    6   1.00
  25180.1000000              0.0018330
   3780.3500000              0.0140340
    860.4740000              0.0690970
    242.1450000              0.2374520
     77.3349000              0.4830340
     26.2470000              0.3398560
SP   6   1.00
    491.7650000             -0.0022974              0.0039894
    116.9840000             -0.0307140              0.0303180
     37.4153000             -0.1125280              0.1298800
     13.7834000              0.0450160              0.3279510
      5.4521500              0.5893530              0.4535270
      2.2258800              0.4652060              0.2521540
SP   3   1.00
      3.1864900             -0.2518300             -0.0142990
      1.1442700              0.0615890              0.3235720
      0.4203770              1.0601800              0.7435070
SP   1   1.00
      0.1426570              1.0000000              1.0000000
D    1   1.00
      1.5000000              1.0000000
D    1   1.00
      0.3750000              1.0000000
F    1   1.00
      0.7000000              1.0000000
****
}

set {
reference uhf
freeze_core true
e_convergence 10
d_convergence 10
dft_spherical_points 1202
dft_radial_points 99
}

e = energy('b3lyp')

print_out('Grab this energy {0}'.format(e))
--------------------------------------------------------------------------

    Molecular point group: c1

    Geometry (in Bohr), charge = 0, multiplicity = 2:

       Center              X                  Y                   Z               Mass
    ------------   -----------------  -----------------  -----------------  -----------------
         C           -0.006392804392    -1.354429383951     0.001908036052    12.000000000000
         C           -0.018979294192     1.465541020349    -0.001505706148    12.000000000000
         H            1.934574608408    -2.112301755351    -0.001596092148     1.007825032230
         H           -0.945657980892    -2.115935421051     1.666982468352     1.007825032230
         H           -0.945090111592    -2.115771597151    -1.669115157848     1.007825032230
         H            0.129154910108     2.510527495649    -1.750001842448     1.007825032230
         H            0.129119805108     2.510494058749     1.748940150852     1.007825032230

  Charge       = 0
  Multiplicity = 2
  Basis Set: ANONYMOUS2FBF6111
    Blend: 6-31G_2DFP_
  Basis Set: (ANONYMOUS2FBF6111 AUX)
    Blend: DEF2-UNIVERSAL-JKFIT

    Orbital Energies [Eh]
    ---------------------

    Alpha Occupied:

       1A    -10.179501     2A    -10.174209     3A     -0.751505
       4A     -0.604983     5A     -0.446309     6A     -0.410323
       7A     -0.385310     8A     -0.354358     9A     -0.197342

    Alpha Virtual:

      10A      0.099105    11A      0.127838    12A      0.141331
      13A      0.165311    14A      0.203387    15A      0.247272
      16A      0.430335    17A      0.440437    18A      0.446278
      19A      0.450074    20A      0.478825    21A      0.520668
      22A      0.543768    23A      0.574435    24A      0.594006
      25A      0.619071    26A      0.632826    27A      0.640409
      28A      0.650342    29A      0.741172    30A      0.822589
      31A      0.866069    32A      0.930889    33A      0.976666
      34A      1.025021    35A      1.071577    36A      1.083587
      37A      1.086071    38A      1.180860    39A      1.220826
      40A      1.252762    41A      1.323096    42A      1.345117
      43A      1.367861    44A      1.418568    45A      1.446616
      46A      1.509557    47A      1.524478    48A      1.603142
      49A      1.762008    50A      1.809398    51A      1.953762
      52A      2.049896    53A      2.101149    54A      2.697989
      55A      2.801045    56A      2.829049    57A      2.861315
      58A      2.928988    59A      2.962713    60A      2.985920
      61A      3.080410    62A      3.094004    63A      3.158657
      64A      3.170736    65A      3.198580    66A      3.300336
      67A      3.357364    68A      3.390658    69A      3.493751
      70A      3.498132    71A      3.581621    72A      3.596022
      73A      3.712612    74A      3.806673    75A      3.973434
      76A      4.023023    77A      4.089179    78A      4.128973
      79A      4.188632    80A      4.197717    81A      4.204743
      82A      4.295045    83A      4.369549    84A      4.491615
      85A      4.497932    86A      4.528270    87A      4.866233
      88A      4.924193    89A      5.147166    90A      5.167937
      91A      5.275214    92A      5.332954

    Beta Occupied:

       1A    -10.175032     2A    -10.165560     3A     -0.734865
       4A     -0.580383     5A     -0.440178     6A     -0.395657
       7A     -0.377340     8A     -0.349910

    Beta Virtual:

       9A     -0.036105    10A      0.101759    11A      0.139021
      12A      0.142954    13A      0.170168    14A      0.206973
      15A      0.253022    16A      0.441531    17A      0.445144
      18A      0.455737    19A      0.459264    20A      0.487499
      21A      0.548841    22A      0.588050    23A      0.592287
      24A      0.602735    25A      0.624260    26A      0.640896
      27A      0.646021    28A      0.657752    29A      0.766525
      30A      0.822385    31A      0.869108    32A      0.948630
      33A      0.987795    34A      1.033638    35A      1.079560
      36A      1.089366    37A      1.102338    38A      1.184425
      39A      1.228555    40A      1.265259    41A      1.329683
      42A      1.352639    43A      1.374114    44A      1.424530
      45A      1.454049    46A      1.514156    47A      1.535747
      48A      1.614313    49A      1.768625    50A      1.815542
      51A      1.958186    52A      2.059829    53A      2.106645
      54A      2.721204    55A      2.822798    56A      2.830959
      57A      2.877407    58A      2.931540    59A      2.989077
      60A      3.023084    61A      3.093690    62A      3.121410
      63A      3.176383    64A      3.210962    65A      3.217442
      66A      3.339077    67A      3.369573    68A      3.409616
      69A      3.518121    70A      3.536560    71A      3.598408
      72A      3.606138    73A      3.730823    74A      3.806969
      75A      3.984049    76A      4.032402    77A      4.095703
      78A      4.138414    79A      4.201073    80A      4.204648
      81A      4.213859    82A      4.303136    83A      4.373722
      84A      4.498505    85A      4.508501    86A      4.535518
      87A      4.867570    88A      4.928557    89A      5.150494
      90A      5.178811    91A      5.282309    92A      5.335460

    Final Occupation by Irrep:
              A
    DOCC [     8 ]
    SOCC [     1 ]

  @DF-UKS Final Energy:   -79.16615441607848

   => Energetics <=

    Nuclear Repulsion Energy =             36.9293160240021052
    One-Electron Energy =                -178.0715183325524151
    Two-Electron Energy =                  72.2572704146587483
    DFT Exchange-Correlation Energy =     -10.2812225221869245
    Empirical Dispersion Energy =           0.0000000000000000
    VV10 Nonlocal Energy =                  0.0000000000000000
    Total Energy =                        -79.1661544160784842

  UHF NO Occupations:
  HONO-2 :    7  A 1.9997318
  HONO-1 :    8  A 1.9987094
  HONO-0 :    9  A 1.0000000
  LUNO+0 :   10  A 0.0012906
  LUNO+1 :   11  A 0.0002682
  LUNO+2 :   12  A 0.0002537
  LUNO+3 :   13  A 0.0002225

Computation Completed

Properties will be evaluated at   0.000000,   0.000000,   0.000000 [a0]

Properties computed using the SCF density matrix

  Nuclear Dipole Moment: [e a0]
     X:     0.1499      Y:    -0.6563      Z:    -0.0024

  Electronic Dipole Moment: [e a0]
     X:    -0.1088      Y:     0.5714      Z:     0.0024

  Dipole Moment: [e a0]
     X:     0.0411      Y:    -0.0849      Z:    -0.0000     Total:     0.0943

  Dipole Moment: [D]
     X:     0.1044      Y:    -0.2158      Z:    -0.0000     Total:     0.2397

*** tstop() called on n045 at Fri Nov  5 17:21:05 2021
Module time:
	user time   =      60.95 seconds =       1.02 minutes
	system time =       0.45 seconds =       0.01 minutes
	total time  =         62 seconds =       1.03 minutes
Total time:
	user time   =      60.95 seconds =       1.02 minutes
	system time =       0.45 seconds =       0.01 minutes
	total time  =         62 seconds =       1.03 minutes
Grab this energy -79.16615441607848
    Psi4 stopped on: Friday, 05 November 2021 05:21PM
    Psi4 wall time for execution: 0:01:01.45

*** Psi4 exiting successfully. Buy a developer a beer!
