                               Psi4 1.4a2.dev629

  ==> Input File <==

--------------------------------------------------------------------------
import os
memory 14 GB

molecule {
 C   -0.0054815536   -1.3555422012   -0.0025296492
 C   -0.0193862302    1.4653868707    0.0008805379
 H    1.9227429253   -2.1116073608    0.0009566633
 H   -0.9413624103   -2.1159610796    1.6678609031
 H   -0.9419263938   -2.1161270362   -1.6669772091
 H    0.1282218987    2.5110606094   -1.7501047423
 H    0.1282443403    2.5110999299    1.7499134963
units bohr
0 2
}

basis {

assign 6-31g_2dfp_

[ 6-31g_2dfp_ ]

spherical

!----------------------------------------------------------------------
! Basis Set Exchange
! Version v0.8.13
! https://www.basissetexchange.org
!----------------------------------------------------------------------
!   Basis set: 6-31G(2df,p)
! Description: 6-31G(2df,p)
!        Role: orbital
!     Version: 0  (Data from the original Basis Set Exchange)
!----------------------------------------------------------------------

****
H     0
S    3   1.00
     18.7311370              0.03349460
      2.8253937              0.23472695
      0.6401217              0.81375733
S    1   1.00
      0.1612778              1.00000000
P    1   1.00
      1.5000000              1.0000000
P    1   1.00
      0.3750000              1.0000000
****
B     0
S    6   1.00
   2068.8823000              0.0018663
    310.6495700              0.0142515
     70.6830330              0.0695516
     19.8610800              0.2325729
      6.2993048              0.4670787
      2.1270270              0.3634314
SP   3   1.00
      4.7279710             -0.1303938              0.0745976
      1.1903377             -0.1307889              0.3078467
      0.3594117              1.1309444              0.7434568
SP   1   1.00
      0.1267512              1.0000000              1.0000000
D    1   1.00
      0.8020000              1.0000000
D    1   1.00
      0.2005000              1.0000000
F    1   1.00
      0.5000000              1.0000000
****
C     0
S    6   1.00
   3047.5249000              0.0018347
    457.3695100              0.0140373
    103.9486900              0.0688426
     29.2101550              0.2321844
      9.2866630              0.4679413
      3.1639270              0.3623120
SP   3   1.00
      7.8682724             -0.1193324              0.0689991
      1.8812885             -0.1608542              0.3164240
      0.5442493              1.1434564              0.7443083
SP   1   1.00
      0.1687144              1.0000000              1.0000000
D    1   1.00
      1.2520000              1.0000000
D    1   1.00
      0.3130000              1.0000000
F    1   1.00
      0.8000000              1.0000000
****
N     0
S    6   1.00
   4173.5110000              0.0018348
    627.4579000              0.0139950
    142.9021000              0.0685870
     40.2343300              0.2322410
     12.8202100              0.4690700
      4.3904370              0.3604550
SP   3   1.00
     11.6263580             -0.1149610              0.0675800
      2.7162800             -0.1691180              0.3239070
      0.7722180              1.1458520              0.7408950
SP   1   1.00
      0.2120313              1.0000000              1.0000000
D    1   1.00
      1.8260000              1.0000000
D    1   1.00
      0.4565000              1.0000000
F    1   1.00
      1.0000000              1.0000000
****
O     0
S    6   1.00
   5484.6717000              0.0018311
    825.2349500              0.0139501
    188.0469600              0.0684451
     52.9645000              0.2327143
     16.8975700              0.4701930
      5.7996353              0.3585209
SP   3   1.00
     15.5396160             -0.1107775              0.0708743
      3.5999336             -0.1480263              0.3397528
      1.0137618              1.1307670              0.7271586
SP   1   1.00
      0.2700058              1.0000000              1.0000000
D    1   1.00
      2.5840000              1.0000000
D    1   1.00
      0.6460000              1.0000000
F    1   1.00
      1.4000000              1.0000000
****
F     0
S    6   1.00
   7001.7130900              0.0018196169
   1051.3660900              0.0139160796
    239.2856900              0.0684053245
     67.3974453              0.233185760
     21.5199573              0.471267439
      7.40310130             0.356618546
SP   3   1.00
     20.8479528             -0.108506975            0.0716287243
      4.80830834            -0.146451658            0.3459121030
      1.34406986             1.128688580            0.7224699570
SP   1   1.00
      0.358151393            1.0000000              1.0000000
D    1   1.00
      3.5000000              1.0000000
D    1   1.00
      0.8750000              1.0000000
F    1   1.00
      1.8500000              1.0000000
****
Al     0
S    6   1.00
  13983.1000000              0.00194267
   2098.7500000              0.0148599
    477.7050000              0.0728494
    134.3600000              0.2468300
     42.8709000              0.4872580
     14.5189000              0.3234960
SP   6   1.00
    239.6680000             -0.00292619             0.00460285
     57.4419000             -0.0374080              0.0331990
     18.2859000             -0.1144870              0.1362820
      6.5991400              0.1156350              0.3304760
      2.4904900              0.6125950              0.4491460
      0.9445400              0.3937990              0.2657040
SP   3   1.00
      1.2779000             -0.2276060             -0.0175130
      0.3975900              0.00144583             0.2445330
      0.1600950              1.0927900              0.8049340
SP   1   1.00
      0.0556577              1.0000000              1.0000000
D    1   1.00
      0.6500000              1.0000000
D    1   1.00
      0.1625000              1.0000000
F    1   1.00
      0.2500000              1.0000000
****
Si     0
S    6   1.00
  16115.9000000              0.00195948
   2425.5800000              0.01492880
    553.8670000              0.07284780
    156.3400000              0.24613000
     50.0683000              0.48591400
     17.0178000              0.32500200
SP   6   1.00
    292.7180000             -0.00278094             0.00443826
     69.8731000             -0.03571460             0.03266790
     22.3363000             -0.11498500             0.13472100
      8.1503900              0.09356340             0.32867800
      3.1345800              0.60301700             0.44964000
      1.2254300              0.41895900             0.26137200
SP   3   1.00
      1.7273800             -0.24463000            -0.01779510
      0.5729220              0.00431572             0.25353900
      0.2221920              1.09818000             0.80066900
SP   1   1.00
      0.0778369              1.00000000             1.00000000
D    1   1.00
      0.9000000              1.0000000
D    1   1.00
      0.2250000              1.0000000
F    1   1.00
      0.3200000              1.0000000
****
P     0
S    6   1.00
  19413.3000000              0.0018516
   2909.4200000              0.0142062
    661.3640000              0.0699995
    185.7590000              0.2400790
     59.1943000              0.4847620
     20.0310000              0.3352000
SP   6   1.00
    339.4780000             -0.00278217             0.00456462
     81.0101000             -0.0360499              0.03369360
     25.8780000             -0.1166310              0.13975500
      9.4522100              0.0968328              0.33936200
      3.6656600              0.6144180              0.45092100
      1.4674600              0.4037980              0.23858600
SP   3   1.00
      2.1562300             -0.2529230             -0.01776530
      0.7489970              0.0328517              0.27405800
      0.2831450              1.0812500              0.78542100
SP   1   1.00
      0.0998317              1.0000000              1.00000000
D    1   1.00
      1.1000000              1.0000000
D    1   1.00
      0.2750000              1.0000000
F    1   1.00
      0.4500000              1.0000000
****
S     0
S    6   1.00
  21917.1000000              0.0018690
   3301.4900000              0.0142300
    754.1460000              0.0696960
    212.7110000              0.2384870
     67.9896000              0.4833070
     23.0515000              0.3380740
SP   6   1.00
    423.7350000             -0.0023767              0.0040610
    100.7100000             -0.0316930              0.0306810
     32.1599000             -0.1133170              0.1304520
     11.8079000              0.0560900              0.3272050
      4.6311000              0.5922550              0.4528510
      1.8702500              0.4550060              0.2560420
SP   3   1.00
      2.6158400             -0.2503740             -0.0145110
      0.9221670              0.0669570              0.3102630
      0.3412870              1.0545100              0.7544830
SP   1   1.00
      0.1171670              1.0000000              1.0000000
D    1   1.00
      1.3000000              1.0000000
D    1   1.00
      0.3250000              1.0000000
F    1   1.00
      0.5500000              1.0000000
****
Cl     0
S    6   1.00
  25180.1000000              0.0018330
   3780.3500000              0.0140340
    860.4740000              0.0690970
    242.1450000              0.2374520
     77.3349000              0.4830340
     26.2470000              0.3398560
SP   6   1.00
    491.7650000             -0.0022974              0.0039894
    116.9840000             -0.0307140              0.0303180
     37.4153000             -0.1125280              0.1298800
     13.7834000              0.0450160              0.3279510
      5.4521500              0.5893530              0.4535270
      2.2258800              0.4652060              0.2521540
SP   3   1.00
      3.1864900             -0.2518300             -0.0142990
      1.1442700              0.0615890              0.3235720
      0.4203770              1.0601800              0.7435070
SP   1   1.00
      0.1426570              1.0000000              1.0000000
D    1   1.00
      1.5000000              1.0000000
D    1   1.00
      0.3750000              1.0000000
F    1   1.00
      0.7000000              1.0000000
****
}

set {
reference uhf
freeze_core true
e_convergence 10
d_convergence 10
dft_spherical_points 1202
dft_radial_points 99
}

e = energy('b3lyp')

print_out('Grab this energy {0}'.format(e))
--------------------------------------------------------------------------

    Molecular point group: c1

    Geometry (in Bohr), charge = 0, multiplicity = 2:

       Center              X                  Y                   Z               Mass
    ------------   -----------------  -----------------  -----------------  -----------------
         C           -0.005475442567    -1.355069047939    -0.001905411388    12.000000000000
         C           -0.019380119167     1.465860023961     0.001504775712    12.000000000000
         H            1.922749036333    -2.111134207539     0.001580901112     1.007825032230
         H           -0.941356299267    -2.115487926339     1.668485140912     1.007825032230
         H           -0.941920282767    -2.115653882939    -1.666352971288     1.007825032230
         H            0.128228009733     2.511533762661    -1.749480504488     1.007825032230
         H            0.128250451333     2.511573083161     1.750537734112     1.007825032230

  Charge       = 0
  Multiplicity = 2
  Basis Set: ANONYMOUSFC3393E2
    Blend: 6-31G_2DFP_
  Basis Set: (ANONYMOUSFC3393E2 AUX)
    Blend: DEF2-UNIVERSAL-JKFIT

    Orbital Energies [Eh]
    ---------------------

    Alpha Occupied:

       1A    -10.179552     2A    -10.173355     3A     -0.751710
       4A     -0.605391     5A     -0.446314     6A     -0.410922
       7A     -0.385243     8A     -0.354524     9A     -0.197371

    Alpha Virtual:

      10A      0.099371    11A      0.128062    12A      0.141585
      13A      0.166419    14A      0.203416    15A      0.247160
      16A      0.430406    17A      0.440544    18A      0.446402
      19A      0.450333    20A      0.478779    21A      0.521160
      22A      0.544107    23A      0.574517    24A      0.594677
      25A      0.619389    26A      0.634704    27A      0.640788
      28A      0.650360    29A      0.741449    30A      0.822908
      31A      0.867438    32A      0.931729    33A      0.977294
      34A      1.025068    35A      1.071775    36A      1.083760
      37A      1.086231    38A      1.180531    39A      1.220854
      40A      1.254364    41A      1.324303    42A      1.344784
      43A      1.369038    44A      1.421576    45A      1.447345
      46A      1.510277    47A      1.524837    48A      1.603052
      49A      1.766722    50A      1.810047    51A      1.954709
      52A      2.049978    53A      2.103761    54A      2.699105
      55A      2.801834    56A      2.829236    57A      2.862126
      58A      2.929976    59A      2.963726    60A      2.986903
      61A      3.079885    62A      3.093862    63A      3.159273
      64A      3.170418    65A      3.198714    66A      3.300517
      67A      3.357905    68A      3.388012    69A      3.494447
      70A      3.498929    71A      3.579660    72A      3.596547
      73A      3.713057    74A      3.807058    75A      3.975680
      76A      4.023823    77A      4.091490    78A      4.129242
      79A      4.189572    80A      4.204229    81A      4.209991
      82A      4.294211    83A      4.372445    84A      4.493927
      85A      4.504165    86A      4.529280    87A      4.866477
      88A      4.926847    89A      5.146502    90A      5.169174
      91A      5.286814    92A      5.335784

    Beta Occupied:

       1A    -10.174168     2A    -10.165604     3A     -0.735164
       4A     -0.580642     5A     -0.440199     6A     -0.396333
       7A     -0.377306     8A     -0.350048

    Beta Virtual:

       9A     -0.035971    10A      0.102064    11A      0.139204
      12A      0.143228    13A      0.171193    14A      0.206999
      15A      0.252913    16A      0.441605    17A      0.445196
      18A      0.456026    19A      0.459332    20A      0.487511
      21A      0.549561    22A      0.588158    23A      0.592561
      24A      0.603470    25A      0.624553    26A      0.642522
      27A      0.646441    28A      0.657755    29A      0.766852
      30A      0.822665    31A      0.870451    32A      0.949347
      33A      0.988517    34A      1.033742    35A      1.079724
      36A      1.089539    37A      1.102519    38A      1.184142
      39A      1.228591    40A      1.266684    41A      1.330888
      42A      1.352241    43A      1.375384    44A      1.427512
      45A      1.454794    46A      1.514871    47A      1.536112
      48A      1.614180    49A      1.773321    50A      1.816097
      51A      1.959119    52A      2.059918    53A      2.109267
      54A      2.722364    55A      2.823774    56A      2.831204
      57A      2.878179    58A      2.932523    59A      2.991120
      60A      3.023213    61A      3.093147    62A      3.120941
      63A      3.177150    64A      3.210578    65A      3.217689
      66A      3.339148    67A      3.369804    68A      3.407268
      69A      3.518548    70A      3.537689    71A      3.596831
      72A      3.606657    73A      3.731230    74A      3.807334
      75A      3.986067    76A      4.033099    77A      4.098052
      78A      4.138797    79A      4.203935    80A      4.209036
      81A      4.219009    82A      4.302252    83A      4.376648
      84A      4.500796    85A      4.514631    86A      4.536623
      87A      4.867815    88A      4.931129    89A      5.149838
      90A      5.180071    91A      5.293862    92A      5.338293

    Final Occupation by Irrep:
              A
    DOCC [     8 ]
    SOCC [     1 ]

  @DF-UKS Final Energy:   -79.16611939138936

   => Energetics <=

    Nuclear Repulsion Energy =             36.9509195451656254
    One-Electron Energy =                -178.1120938704232231
    Two-Electron Energy =                  72.2783974636430315
    DFT Exchange-Correlation Energy =     -10.2833425297747905
    Empirical Dispersion Energy =           0.0000000000000000
    VV10 Nonlocal Energy =                  0.0000000000000000
    Total Energy =                        -79.1661193913893584

  UHF NO Occupations:
  HONO-2 :    7  A 1.9997310
  HONO-1 :    8  A 1.9987069
  HONO-0 :    9  A 1.0000000
  LUNO+0 :   10  A 0.0012931
  LUNO+1 :   11  A 0.0002690
  LUNO+2 :   12  A 0.0002471
  LUNO+3 :   13  A 0.0002216

Computation Completed

Properties will be evaluated at   0.000000,   0.000000,   0.000000 [a0]

Properties computed using the SCF density matrix

  Nuclear Dipole Moment: [e a0]
     X:     0.1468      Y:    -0.6544      Z:     0.0024

  Electronic Dipole Moment: [e a0]
     X:    -0.1042      Y:     0.5678      Z:    -0.0023

  Dipole Moment: [e a0]
     X:     0.0426      Y:    -0.0866      Z:     0.0000     Total:     0.0965

  Dipole Moment: [D]
     X:     0.1083      Y:    -0.2201      Z:     0.0000     Total:     0.2453

*** tstop() called on n044 at Fri Nov  5 17:22:21 2021
Module time:
	user time   =      62.25 seconds =       1.04 minutes
	system time =       0.47 seconds =       0.01 minutes
	total time  =         63 seconds =       1.05 minutes
Total time:
	user time   =      62.25 seconds =       1.04 minutes
	system time =       0.47 seconds =       0.01 minutes
	total time  =         63 seconds =       1.05 minutes
Grab this energy -79.16611939138936
    Psi4 stopped on: Friday, 05 November 2021 05:22PM
    Psi4 wall time for execution: 0:01:02.75

*** Psi4 exiting successfully. Buy a developer a beer!
