                               Psi4 1.4a2.dev629

  ==> Input File <==

--------------------------------------------------------------------------
import os
memory 14 GB

molecule {
 C   -0.0041248575   -1.3544188274    0.0001602605
 C   -0.0210941206    1.4655347558    0.0003958377
 H    1.9280463685   -2.1117435508   -0.0025770242
 H   -0.9420035094   -2.1158909388    1.6733559221
 H   -0.9472519940   -2.1162442513   -1.6708962970
 H    0.1333511260    2.5108483953   -1.7496802097
 H    0.1241295634    2.5102241495    1.7492415107
units bohr
0 2
}

basis {

assign 6-31g_2dfp_

[ 6-31g_2dfp_ ]

spherical

!----------------------------------------------------------------------
! Basis Set Exchange
! Version v0.8.13
! https://www.basissetexchange.org
!----------------------------------------------------------------------
!   Basis set: 6-31G(2df,p)
! Description: 6-31G(2df,p)
!        Role: orbital
!     Version: 0  (Data from the original Basis Set Exchange)
!----------------------------------------------------------------------

****
H     0
S    3   1.00
     18.7311370              0.03349460
      2.8253937              0.23472695
      0.6401217              0.81375733
S    1   1.00
      0.1612778              1.00000000
P    1   1.00
      1.5000000              1.0000000
P    1   1.00
      0.3750000              1.0000000
****
B     0
S    6   1.00
   2068.8823000              0.0018663
    310.6495700              0.0142515
     70.6830330              0.0695516
     19.8610800              0.2325729
      6.2993048              0.4670787
      2.1270270              0.3634314
SP   3   1.00
      4.7279710             -0.1303938              0.0745976
      1.1903377             -0.1307889              0.3078467
      0.3594117              1.1309444              0.7434568
SP   1   1.00
      0.1267512              1.0000000              1.0000000
D    1   1.00
      0.8020000              1.0000000
D    1   1.00
      0.2005000              1.0000000
F    1   1.00
      0.5000000              1.0000000
****
C     0
S    6   1.00
   3047.5249000              0.0018347
    457.3695100              0.0140373
    103.9486900              0.0688426
     29.2101550              0.2321844
      9.2866630              0.4679413
      3.1639270              0.3623120
SP   3   1.00
      7.8682724             -0.1193324              0.0689991
      1.8812885             -0.1608542              0.3164240
      0.5442493              1.1434564              0.7443083
SP   1   1.00
      0.1687144              1.0000000              1.0000000
D    1   1.00
      1.2520000              1.0000000
D    1   1.00
      0.3130000              1.0000000
F    1   1.00
      0.8000000              1.0000000
****
N     0
S    6   1.00
   4173.5110000              0.0018348
    627.4579000              0.0139950
    142.9021000              0.0685870
     40.2343300              0.2322410
     12.8202100              0.4690700
      4.3904370              0.3604550
SP   3   1.00
     11.6263580             -0.1149610              0.0675800
      2.7162800             -0.1691180              0.3239070
      0.7722180              1.1458520              0.7408950
SP   1   1.00
      0.2120313              1.0000000              1.0000000
D    1   1.00
      1.8260000              1.0000000
D    1   1.00
      0.4565000              1.0000000
F    1   1.00
      1.0000000              1.0000000
****
O     0
S    6   1.00
   5484.6717000              0.0018311
    825.2349500              0.0139501
    188.0469600              0.0684451
     52.9645000              0.2327143
     16.8975700              0.4701930
      5.7996353              0.3585209
SP   3   1.00
     15.5396160             -0.1107775              0.0708743
      3.5999336             -0.1480263              0.3397528
      1.0137618              1.1307670              0.7271586
SP   1   1.00
      0.2700058              1.0000000              1.0000000
D    1   1.00
      2.5840000              1.0000000
D    1   1.00
      0.6460000              1.0000000
F    1   1.00
      1.4000000              1.0000000
****
F     0
S    6   1.00
   7001.7130900              0.0018196169
   1051.3660900              0.0139160796
    239.2856900              0.0684053245
     67.3974453              0.233185760
     21.5199573              0.471267439
      7.40310130             0.356618546
SP   3   1.00
     20.8479528             -0.108506975            0.0716287243
      4.80830834            -0.146451658            0.3459121030
      1.34406986             1.128688580            0.7224699570
SP   1   1.00
      0.358151393            1.0000000              1.0000000
D    1   1.00
      3.5000000              1.0000000
D    1   1.00
      0.8750000              1.0000000
F    1   1.00
      1.8500000              1.0000000
****
Al     0
S    6   1.00
  13983.1000000              0.00194267
   2098.7500000              0.0148599
    477.7050000              0.0728494
    134.3600000              0.2468300
     42.8709000              0.4872580
     14.5189000              0.3234960
SP   6   1.00
    239.6680000             -0.00292619             0.00460285
     57.4419000             -0.0374080              0.0331990
     18.2859000             -0.1144870              0.1362820
      6.5991400              0.1156350              0.3304760
      2.4904900              0.6125950              0.4491460
      0.9445400              0.3937990              0.2657040
SP   3   1.00
      1.2779000             -0.2276060             -0.0175130
      0.3975900              0.00144583             0.2445330
      0.1600950              1.0927900              0.8049340
SP   1   1.00
      0.0556577              1.0000000              1.0000000
D    1   1.00
      0.6500000              1.0000000
D    1   1.00
      0.1625000              1.0000000
F    1   1.00
      0.2500000              1.0000000
****
Si     0
S    6   1.00
  16115.9000000              0.00195948
   2425.5800000              0.01492880
    553.8670000              0.07284780
    156.3400000              0.24613000
     50.0683000              0.48591400
     17.0178000              0.32500200
SP   6   1.00
    292.7180000             -0.00278094             0.00443826
     69.8731000             -0.03571460             0.03266790
     22.3363000             -0.11498500             0.13472100
      8.1503900              0.09356340             0.32867800
      3.1345800              0.60301700             0.44964000
      1.2254300              0.41895900             0.26137200
SP   3   1.00
      1.7273800             -0.24463000            -0.01779510
      0.5729220              0.00431572             0.25353900
      0.2221920              1.09818000             0.80066900
SP   1   1.00
      0.0778369              1.00000000             1.00000000
D    1   1.00
      0.9000000              1.0000000
D    1   1.00
      0.2250000              1.0000000
F    1   1.00
      0.3200000              1.0000000
****
P     0
S    6   1.00
  19413.3000000              0.0018516
   2909.4200000              0.0142062
    661.3640000              0.0699995
    185.7590000              0.2400790
     59.1943000              0.4847620
     20.0310000              0.3352000
SP   6   1.00
    339.4780000             -0.00278217             0.00456462
     81.0101000             -0.0360499              0.03369360
     25.8780000             -0.1166310              0.13975500
      9.4522100              0.0968328              0.33936200
      3.6656600              0.6144180              0.45092100
      1.4674600              0.4037980              0.23858600
SP   3   1.00
      2.1562300             -0.2529230             -0.01776530
      0.7489970              0.0328517              0.27405800
      0.2831450              1.0812500              0.78542100
SP   1   1.00
      0.0998317              1.0000000              1.00000000
D    1   1.00
      1.1000000              1.0000000
D    1   1.00
      0.2750000              1.0000000
F    1   1.00
      0.4500000              1.0000000
****
S     0
S    6   1.00
  21917.1000000              0.0018690
   3301.4900000              0.0142300
    754.1460000              0.0696960
    212.7110000              0.2384870
     67.9896000              0.4833070
     23.0515000              0.3380740
SP   6   1.00
    423.7350000             -0.0023767              0.0040610
    100.7100000             -0.0316930              0.0306810
     32.1599000             -0.1133170              0.1304520
     11.8079000              0.0560900              0.3272050
      4.6311000              0.5922550              0.4528510
      1.8702500              0.4550060              0.2560420
SP   3   1.00
      2.6158400             -0.2503740             -0.0145110
      0.9221670              0.0669570              0.3102630
      0.3412870              1.0545100              0.7544830
SP   1   1.00
      0.1171670              1.0000000              1.0000000
D    1   1.00
      1.3000000              1.0000000
D    1   1.00
      0.3250000              1.0000000
F    1   1.00
      0.5500000              1.0000000
****
Cl     0
S    6   1.00
  25180.1000000              0.0018330
   3780.3500000              0.0140340
    860.4740000              0.0690970
    242.1450000              0.2374520
     77.3349000              0.4830340
     26.2470000              0.3398560
SP   6   1.00
    491.7650000             -0.0022974              0.0039894
    116.9840000             -0.0307140              0.0303180
     37.4153000             -0.1125280              0.1298800
     13.7834000              0.0450160              0.3279510
      5.4521500              0.5893530              0.4535270
      2.2258800              0.4652060              0.2521540
SP   3   1.00
      3.1864900             -0.2518300             -0.0142990
      1.1442700              0.0615890              0.3235720
      0.4203770              1.0601800              0.7435070
SP   1   1.00
      0.1426570              1.0000000              1.0000000
D    1   1.00
      1.5000000              1.0000000
D    1   1.00
      0.3750000              1.0000000
F    1   1.00
      0.7000000              1.0000000
****
}

set {
reference uhf
freeze_core true
e_convergence 10
d_convergence 10
dft_spherical_points 1202
dft_radial_points 99
}

e = energy('b3lyp')

print_out('Grab this energy {0}'.format(e))
--------------------------------------------------------------------------

    Molecular point group: c1

    Geometry (in Bohr), charge = 0, multiplicity = 2:

       Center              X                  Y                   Z               Mass
    ------------   -----------------  -----------------  -----------------  -----------------
         C           -0.003985808950    -1.354426883551    -0.000050239258    12.000000000000
         C           -0.020955072050     1.465526699649     0.000185337942    12.000000000000
         H            1.928185417050    -2.111751606951    -0.002787523958     1.007825032230
         H           -0.941864460850    -2.115898994951     1.673145422342     1.007825032230
         H           -0.947112945450    -2.116252307451    -1.671106796758     1.007825032230
         H            0.133490174550     2.510840339149    -1.749890709458     1.007825032230
         H            0.124268611950     2.510216093349     1.749031010942     1.007825032230

  Charge       = 0
  Multiplicity = 2
  Basis Set: ANONYMOUS32D24A65
    Blend: 6-31G_2DFP_
  Basis Set: (ANONYMOUS32D24A65 AUX)
    Blend: DEF2-UNIVERSAL-JKFIT

    Orbital Energies [Eh]
    ---------------------

    Alpha Occupied:

       1A    -10.179533     2A    -10.174197     3A     -0.751520
       4A     -0.604982     5A     -0.446174     6A     -0.410715
       7A     -0.385189     8A     -0.354138     9A     -0.197442

    Alpha Virtual:

      10A      0.099033    11A      0.128018    12A      0.140966
      13A      0.165858    14A      0.203132    15A      0.247131
      16A      0.430311    17A      0.440686    18A      0.446295
      19A      0.449961    20A      0.478661    21A      0.520853
      22A      0.543904    23A      0.574159    24A      0.594023
      25A      0.618695    26A      0.634291    27A      0.639588
      28A      0.650021    29A      0.741199    30A      0.822604
      31A      0.865898    32A      0.931172    33A      0.976835
      34A      1.024753    35A      1.071343    36A      1.083341
      37A      1.086278    38A      1.180432    39A      1.220840
      40A      1.254026    41A      1.323195    42A      1.344386
      43A      1.368043    44A      1.420336    45A      1.445457
      46A      1.509782    47A      1.523811    48A      1.603122
      49A      1.764696    50A      1.806302    51A      1.951548
      52A      2.049663    53A      2.102943    54A      2.698453
      55A      2.801187    56A      2.828688    57A      2.860328
      58A      2.928907    59A      2.962458    60A      2.987040
      61A      3.080382    62A      3.093015    63A      3.158367
      64A      3.171122    65A      3.198811    66A      3.300856
      67A      3.358629    68A      3.389755    69A      3.493714
      70A      3.499772    71A      3.580814    72A      3.595112
      73A      3.711786    74A      3.806935    75A      3.972955
      76A      4.024126    77A      4.087989    78A      4.129545
      79A      4.189150    80A      4.198020    81A      4.204921
      82A      4.294735    83A      4.368678    84A      4.490303
      85A      4.501804    86A      4.527006    87A      4.863709
      88A      4.924423    89A      5.146492    90A      5.168703
      91A      5.278636    92A      5.328871

    Beta Occupied:

       1A    -10.175016     2A    -10.165589     3A     -0.734868
       4A     -0.580365     5A     -0.440019     6A     -0.396071
       7A     -0.377266     8A     -0.349689

    Beta Virtual:

       9A     -0.036129    10A      0.101682    11A      0.139177
      12A      0.142583    13A      0.170686    14A      0.206750
      15A      0.252883    16A      0.441739    17A      0.445008
      18A      0.455673    19A      0.459222    20A      0.487518
      21A      0.549147    22A      0.587578    23A      0.592311
      24A      0.602785    25A      0.624001    26A      0.642124
      27A      0.645375    28A      0.657501    29A      0.766588
      30A      0.822393    31A      0.868927    32A      0.948884
      33A      0.987976    34A      1.033391    35A      1.079280
      36A      1.088918    37A      1.102679    38A      1.184048
      39A      1.228576    40A      1.266419    41A      1.329781
      42A      1.351926    43A      1.374315    44A      1.426308
      45A      1.452929    46A      1.514377    47A      1.535049
      48A      1.614278    49A      1.771212    50A      1.812539
      51A      1.956013    52A      2.059579    53A      2.108482
      54A      2.721677    55A      2.823044    56A      2.830648
      57A      2.876282    58A      2.931440    59A      2.989304
      60A      3.023770    61A      3.093827    62A      3.120290
      63A      3.176052    64A      3.211281    65A      3.217790
      66A      3.339625    67A      3.370786    68A      3.408646
      69A      3.519537    70A      3.536782    71A      3.597756
      72A      3.605189    73A      3.729953    74A      3.807200
      75A      3.983756    76A      4.033195    77A      4.094419
      78A      4.139060    79A      4.202454    80A      4.203853
      81A      4.214204    82A      4.302716    83A      4.372904
      84A      4.497297    85A      4.512403    86A      4.534316
      87A      4.865061    88A      4.928705    89A      5.149816
      90A      5.179603    91A      5.285756    92A      5.331419

    Final Occupation by Irrep:
              A
    DOCC [     8 ]
    SOCC [     1 ]

  @DF-UKS Final Energy:   -79.16616498909208

   => Energetics <=

    Nuclear Repulsion Energy =             36.9292280990009090
    One-Electron Energy =                -178.0713621456138469
    Two-Electron Energy =                  72.2571799802321806
    DFT Exchange-Correlation Energy =     -10.2812109227113258
    Empirical Dispersion Energy =           0.0000000000000000
    VV10 Nonlocal Energy =                  0.0000000000000000
    Total Energy =                        -79.1661649890920813

  UHF NO Occupations:
  HONO-2 :    7  A 1.9997316
  HONO-1 :    8  A 1.9987103
  HONO-0 :    9  A 1.0000000
  LUNO+0 :   10  A 0.0012897
  LUNO+1 :   11  A 0.0002684
  LUNO+2 :   12  A 0.0002493
  LUNO+3 :   13  A 0.0002221

Computation Completed

Properties will be evaluated at   0.000000,   0.000000,   0.000000 [a0]

Properties computed using the SCF density matrix

  Nuclear Dipole Moment: [e a0]
     X:     0.1473      Y:    -0.6562      Z:    -0.0008

  Electronic Dipole Moment: [e a0]
     X:    -0.1039      Y:     0.5713      Z:     0.0011

  Dipole Moment: [e a0]
     X:     0.0435      Y:    -0.0850      Z:     0.0003     Total:     0.0955

  Dipole Moment: [D]
     X:     0.1105      Y:    -0.2160      Z:     0.0008     Total:     0.2426

*** tstop() called on n045 at Fri Nov  5 16:41:05 2021
Module time:
	user time   =      61.46 seconds =       1.02 minutes
	system time =       0.45 seconds =       0.01 minutes
	total time  =         62 seconds =       1.03 minutes
Total time:
	user time   =      61.46 seconds =       1.02 minutes
	system time =       0.45 seconds =       0.01 minutes
	total time  =         62 seconds =       1.03 minutes
Grab this energy -79.16616498909208
    Psi4 stopped on: Friday, 05 November 2021 04:41PM
    Psi4 wall time for execution: 0:01:01.96

*** Psi4 exiting successfully. Buy a developer a beer!
