                               Psi4 1.4a2.dev629

  ==> Input File <==

--------------------------------------------------------------------------
import os
memory 14 GB

molecule {
 C   -0.0054820068   -1.3555401989    0.0009608813
 C   -0.0193863904    1.4653902883   -0.0009502073
 H    1.9227420007   -2.1116134846    0.0022588012
 H   -0.9415919520   -2.1223059492    1.6692834699
 H   -0.9416951721   -2.1097916906   -1.6655337595
 H    0.1282664321    2.5138242632   -1.7530172790
 H    0.1281996650    2.5083465040    1.7469980934
units bohr
0 2
}

basis {

assign 6-31g_2dfp_

[ 6-31g_2dfp_ ]

spherical

!----------------------------------------------------------------------
! Basis Set Exchange
! Version v0.8.13
! https://www.basissetexchange.org
!----------------------------------------------------------------------
!   Basis set: 6-31G(2df,p)
! Description: 6-31G(2df,p)
!        Role: orbital
!     Version: 0  (Data from the original Basis Set Exchange)
!----------------------------------------------------------------------

****
H     0
S    3   1.00
     18.7311370              0.03349460
      2.8253937              0.23472695
      0.6401217              0.81375733
S    1   1.00
      0.1612778              1.00000000
P    1   1.00
      1.5000000              1.0000000
P    1   1.00
      0.3750000              1.0000000
****
B     0
S    6   1.00
   2068.8823000              0.0018663
    310.6495700              0.0142515
     70.6830330              0.0695516
     19.8610800              0.2325729
      6.2993048              0.4670787
      2.1270270              0.3634314
SP   3   1.00
      4.7279710             -0.1303938              0.0745976
      1.1903377             -0.1307889              0.3078467
      0.3594117              1.1309444              0.7434568
SP   1   1.00
      0.1267512              1.0000000              1.0000000
D    1   1.00
      0.8020000              1.0000000
D    1   1.00
      0.2005000              1.0000000
F    1   1.00
      0.5000000              1.0000000
****
C     0
S    6   1.00
   3047.5249000              0.0018347
    457.3695100              0.0140373
    103.9486900              0.0688426
     29.2101550              0.2321844
      9.2866630              0.4679413
      3.1639270              0.3623120
SP   3   1.00
      7.8682724             -0.1193324              0.0689991
      1.8812885             -0.1608542              0.3164240
      0.5442493              1.1434564              0.7443083
SP   1   1.00
      0.1687144              1.0000000              1.0000000
D    1   1.00
      1.2520000              1.0000000
D    1   1.00
      0.3130000              1.0000000
F    1   1.00
      0.8000000              1.0000000
****
N     0
S    6   1.00
   4173.5110000              0.0018348
    627.4579000              0.0139950
    142.9021000              0.0685870
     40.2343300              0.2322410
     12.8202100              0.4690700
      4.3904370              0.3604550
SP   3   1.00
     11.6263580             -0.1149610              0.0675800
      2.7162800             -0.1691180              0.3239070
      0.7722180              1.1458520              0.7408950
SP   1   1.00
      0.2120313              1.0000000              1.0000000
D    1   1.00
      1.8260000              1.0000000
D    1   1.00
      0.4565000              1.0000000
F    1   1.00
      1.0000000              1.0000000
****
O     0
S    6   1.00
   5484.6717000              0.0018311
    825.2349500              0.0139501
    188.0469600              0.0684451
     52.9645000              0.2327143
     16.8975700              0.4701930
      5.7996353              0.3585209
SP   3   1.00
     15.5396160             -0.1107775              0.0708743
      3.5999336             -0.1480263              0.3397528
      1.0137618              1.1307670              0.7271586
SP   1   1.00
      0.2700058              1.0000000              1.0000000
D    1   1.00
      2.5840000              1.0000000
D    1   1.00
      0.6460000              1.0000000
F    1   1.00
      1.4000000              1.0000000
****
F     0
S    6   1.00
   7001.7130900              0.0018196169
   1051.3660900              0.0139160796
    239.2856900              0.0684053245
     67.3974453              0.233185760
     21.5199573              0.471267439
      7.40310130             0.356618546
SP   3   1.00
     20.8479528             -0.108506975            0.0716287243
      4.80830834            -0.146451658            0.3459121030
      1.34406986             1.128688580            0.7224699570
SP   1   1.00
      0.358151393            1.0000000              1.0000000
D    1   1.00
      3.5000000              1.0000000
D    1   1.00
      0.8750000              1.0000000
F    1   1.00
      1.8500000              1.0000000
****
Al     0
S    6   1.00
  13983.1000000              0.00194267
   2098.7500000              0.0148599
    477.7050000              0.0728494
    134.3600000              0.2468300
     42.8709000              0.4872580
     14.5189000              0.3234960
SP   6   1.00
    239.6680000             -0.00292619             0.00460285
     57.4419000             -0.0374080              0.0331990
     18.2859000             -0.1144870              0.1362820
      6.5991400              0.1156350              0.3304760
      2.4904900              0.6125950              0.4491460
      0.9445400              0.3937990              0.2657040
SP   3   1.00
      1.2779000             -0.2276060             -0.0175130
      0.3975900              0.00144583             0.2445330
      0.1600950              1.0927900              0.8049340
SP   1   1.00
      0.0556577              1.0000000              1.0000000
D    1   1.00
      0.6500000              1.0000000
D    1   1.00
      0.1625000              1.0000000
F    1   1.00
      0.2500000              1.0000000
****
Si     0
S    6   1.00
  16115.9000000              0.00195948
   2425.5800000              0.01492880
    553.8670000              0.07284780
    156.3400000              0.24613000
     50.0683000              0.48591400
     17.0178000              0.32500200
SP   6   1.00
    292.7180000             -0.00278094             0.00443826
     69.8731000             -0.03571460             0.03266790
     22.3363000             -0.11498500             0.13472100
      8.1503900              0.09356340             0.32867800
      3.1345800              0.60301700             0.44964000
      1.2254300              0.41895900             0.26137200
SP   3   1.00
      1.7273800             -0.24463000            -0.01779510
      0.5729220              0.00431572             0.25353900
      0.2221920              1.09818000             0.80066900
SP   1   1.00
      0.0778369              1.00000000             1.00000000
D    1   1.00
      0.9000000              1.0000000
D    1   1.00
      0.2250000              1.0000000
F    1   1.00
      0.3200000              1.0000000
****
P     0
S    6   1.00
  19413.3000000              0.0018516
   2909.4200000              0.0142062
    661.3640000              0.0699995
    185.7590000              0.2400790
     59.1943000              0.4847620
     20.0310000              0.3352000
SP   6   1.00
    339.4780000             -0.00278217             0.00456462
     81.0101000             -0.0360499              0.03369360
     25.8780000             -0.1166310              0.13975500
      9.4522100              0.0968328              0.33936200
      3.6656600              0.6144180              0.45092100
      1.4674600              0.4037980              0.23858600
SP   3   1.00
      2.1562300             -0.2529230             -0.01776530
      0.7489970              0.0328517              0.27405800
      0.2831450              1.0812500              0.78542100
SP   1   1.00
      0.0998317              1.0000000              1.00000000
D    1   1.00
      1.1000000              1.0000000
D    1   1.00
      0.2750000              1.0000000
F    1   1.00
      0.4500000              1.0000000
****
S     0
S    6   1.00
  21917.1000000              0.0018690
   3301.4900000              0.0142300
    754.1460000              0.0696960
    212.7110000              0.2384870
     67.9896000              0.4833070
     23.0515000              0.3380740
SP   6   1.00
    423.7350000             -0.0023767              0.0040610
    100.7100000             -0.0316930              0.0306810
     32.1599000             -0.1133170              0.1304520
     11.8079000              0.0560900              0.3272050
      4.6311000              0.5922550              0.4528510
      1.8702500              0.4550060              0.2560420
SP   3   1.00
      2.6158400             -0.2503740             -0.0145110
      0.9221670              0.0669570              0.3102630
      0.3412870              1.0545100              0.7544830
SP   1   1.00
      0.1171670              1.0000000              1.0000000
D    1   1.00
      1.3000000              1.0000000
D    1   1.00
      0.3250000              1.0000000
F    1   1.00
      0.5500000              1.0000000
****
Cl     0
S    6   1.00
  25180.1000000              0.0018330
   3780.3500000              0.0140340
    860.4740000              0.0690970
    242.1450000              0.2374520
     77.3349000              0.4830340
     26.2470000              0.3398560
SP   6   1.00
    491.7650000             -0.0022974              0.0039894
    116.9840000             -0.0307140              0.0303180
     37.4153000             -0.1125280              0.1298800
     13.7834000              0.0450160              0.3279510
      5.4521500              0.5893530              0.4535270
      2.2258800              0.4652060              0.2521540
SP   3   1.00
      3.1864900             -0.2518300             -0.0142990
      1.1442700              0.0615890              0.3235720
      0.4203770              1.0601800              0.7435070
SP   1   1.00
      0.1426570              1.0000000              1.0000000
D    1   1.00
      1.5000000              1.0000000
D    1   1.00
      0.3750000              1.0000000
F    1   1.00
      0.7000000              1.0000000
****
}

set {
reference uhf
freeze_core true
e_convergence 10
d_convergence 10
dft_spherical_points 1202
dft_radial_points 99
}

e = energy('b3lyp')

print_out('Grab this energy {0}'.format(e))
--------------------------------------------------------------------------

    Molecular point group: c1

    Geometry (in Bohr), charge = 0, multiplicity = 2:

       Center              X                  Y                   Z               Mass
    ------------   -----------------  -----------------  -----------------  -----------------
         C           -0.005475663581    -1.355069097232     0.000956840873    12.000000000000
         C           -0.019380047181     1.465861389968    -0.000954247727    12.000000000000
         H            1.922748343919    -2.111142382932     0.002254760773     1.007825032230
         H           -0.941585608781    -2.121834847532     1.669279429473     1.007825032230
         H           -0.941688828881    -2.109320588932    -1.665537799927     1.007825032230
         H            0.128272775319     2.514295364868    -1.753021319427     1.007825032230
         H            0.128206008219     2.508817605668     1.746994052973     1.007825032230

  Charge       = 0
  Multiplicity = 2
  Basis Set: ANONYMOUS9650EB29
    Blend: 6-31G_2DFP_
  Basis Set: (ANONYMOUS9650EB29 AUX)
    Blend: DEF2-UNIVERSAL-JKFIT

    Orbital Energies [Eh]
    ---------------------

    Alpha Occupied:

       1A    -10.179553     2A    -10.173355     3A     -0.751712
       4A     -0.605392     5A     -0.446316     6A     -0.410921
       7A     -0.385240     8A     -0.354524     9A     -0.197371

    Alpha Virtual:

      10A      0.099372    11A      0.128042    12A      0.141598
      13A      0.166423    14A      0.203414    15A      0.247160
      16A      0.430401    17A      0.440559    18A      0.446398
      19A      0.450328    20A      0.478783    21A      0.521160
      22A      0.544099    23A      0.574526    24A      0.594673
      25A      0.619385    26A      0.634701    27A      0.640793
      28A      0.650370    29A      0.741451    30A      0.822907
      31A      0.867438    32A      0.931727    33A      0.977284
      34A      1.025064    35A      1.071731    36A      1.083743
      37A      1.086270    38A      1.180564    39A      1.220869
      40A      1.254368    41A      1.324297    42A      1.344784
      43A      1.369027    44A      1.421574    45A      1.447349
      46A      1.510302    47A      1.524790    48A      1.603063
      49A      1.766720    50A      1.810051    51A      1.954716
      52A      2.049965    53A      2.103786    54A      2.699101
      55A      2.801799    56A      2.829288    57A      2.862129
      58A      2.929961    59A      2.963721    60A      2.986914
      61A      3.079880    62A      3.093849    63A      3.159247
      64A      3.170481    65A      3.198721    66A      3.300520
      67A      3.357908    68A      3.387991    69A      3.494429
      70A      3.498955    71A      3.579668    72A      3.596481
      73A      3.713048    74A      3.807133    75A      3.975684
      76A      4.023824    77A      4.091495    78A      4.129219
      79A      4.189554    80A      4.204131    81A      4.210071
      82A      4.294250    83A      4.372512    84A      4.493530
      85A      4.504116    86A      4.529672    87A      4.866474
      88A      4.926884    89A      5.146134    90A      5.169511
      91A      5.286799    92A      5.335840

    Beta Occupied:

       1A    -10.174167     2A    -10.165604     3A     -0.735165
       4A     -0.580642     5A     -0.440201     6A     -0.396332
       7A     -0.377303     8A     -0.350048

    Beta Virtual:

       9A     -0.035972    10A      0.102065    11A      0.139152
      12A      0.143274    13A      0.171196    14A      0.206997
      15A      0.252913    16A      0.441607    17A      0.445196
      18A      0.456018    19A      0.459339    20A      0.487516
      21A      0.549557    22A      0.588131    23A      0.592593
      24A      0.603466    25A      0.624547    26A      0.642518
      27A      0.646448    28A      0.657767    29A      0.766852
      30A      0.822666    31A      0.870451    32A      0.949345
      33A      0.988506    34A      1.033739    35A      1.079655
      36A      1.089603    37A      1.102500    38A      1.184179
      39A      1.228607    40A      1.266687    41A      1.330878
      42A      1.352244    43A      1.375372    44A      1.427512
      45A      1.454795    46A      1.514879    47A      1.536086
      48A      1.614188    49A      1.773318    50A      1.816102
      51A      1.959126    52A      2.059902    53A      2.109294
      54A      2.722359    55A      2.823605    56A      2.831394
      57A      2.878181    58A      2.932510    59A      2.991109
      60A      3.023222    61A      3.093144    62A      3.120923
      63A      3.177174    64A      3.210586    65A      3.217706
      66A      3.339144    67A      3.369815    68A      3.407249
      69A      3.518555    70A      3.537682    71A      3.596818
      72A      3.606615    73A      3.731216    74A      3.807417
      75A      3.986072    76A      4.033102    77A      4.098055
      78A      4.138775    79A      4.203895    80A      4.208978
      81A      4.219060    82A      4.302301    83A      4.376713
      84A      4.500401    85A      4.514601    86A      4.536998
      87A      4.867814    88A      4.931164    89A      5.149563
      90A      5.180313    91A      5.293848    92A      5.338352

    Final Occupation by Irrep:
              A
    DOCC [     8 ]
    SOCC [     1 ]

  @DF-UKS Final Energy:   -79.16611242882743

   => Energetics <=

    Nuclear Repulsion Energy =             36.9509410105511407
    One-Electron Energy =                -178.1121212890444383
    Two-Electron Energy =                  72.2784120724731309
    DFT Exchange-Correlation Energy =     -10.2833442228072567
    Empirical Dispersion Energy =           0.0000000000000000
    VV10 Nonlocal Energy =                  0.0000000000000000
    Total Energy =                        -79.1661124288274323

  UHF NO Occupations:
  HONO-2 :    7  A 1.9997310
  HONO-1 :    8  A 1.9987069
  HONO-0 :    9  A 1.0000000
  LUNO+0 :   10  A 0.0012931
  LUNO+1 :   11  A 0.0002690
  LUNO+2 :   12  A 0.0002471
  LUNO+3 :   13  A 0.0002216

Computation Completed

Properties will be evaluated at   0.000000,   0.000000,   0.000000 [a0]

Properties computed using the SCF density matrix

  Nuclear Dipole Moment: [e a0]
     X:     0.1468      Y:    -0.6544      Z:    -0.0000

  Electronic Dipole Moment: [e a0]
     X:    -0.1042      Y:     0.5678      Z:    -0.0002

  Dipole Moment: [e a0]
     X:     0.0426      Y:    -0.0866      Z:    -0.0003     Total:     0.0965

  Dipole Moment: [D]
     X:     0.1083      Y:    -0.2201      Z:    -0.0007     Total:     0.2453

*** tstop() called on n062 at Fri Nov  5 19:19:08 2021
Module time:
	user time   =      50.50 seconds =       0.84 minutes
	system time =       0.61 seconds =       0.01 minutes
	total time  =         51 seconds =       0.85 minutes
Total time:
	user time   =      50.50 seconds =       0.84 minutes
	system time =       0.61 seconds =       0.01 minutes
	total time  =         51 seconds =       0.85 minutes
Grab this energy -79.16611242882743
    Psi4 stopped on: Friday, 05 November 2021 07:19PM
    Psi4 wall time for execution: 0:00:51.16

*** Psi4 exiting successfully. Buy a developer a beer!
