                               Psi4 1.4a2.dev629

  ==> Input File <==

--------------------------------------------------------------------------
import os
memory 14 GB

molecule {
 C   -0.0054831293   -1.3585645619    0.0011469699
 C   -0.0193303756    1.4693566241    0.0045908738
 H    1.9286903207   -2.1172258177   -0.0008168040
 H   -0.9452135241   -2.1206464241    1.6722715565
 H   -0.9442168735   -2.1218536722   -1.6734087052
 H    0.1281358260    2.5192542150   -1.7504015780
 H    0.1284703322    2.5179893691    1.7466176870
units bohr
0 2
}

basis {

assign 6-31g_2dfp_

[ 6-31g_2dfp_ ]

spherical

!----------------------------------------------------------------------
! Basis Set Exchange
! Version v0.8.13
! https://www.basissetexchange.org
!----------------------------------------------------------------------
!   Basis set: 6-31G(2df,p)
! Description: 6-31G(2df,p)
!        Role: orbital
!     Version: 0  (Data from the original Basis Set Exchange)
!----------------------------------------------------------------------

****
H     0
S    3   1.00
     18.7311370              0.03349460
      2.8253937              0.23472695
      0.6401217              0.81375733
S    1   1.00
      0.1612778              1.00000000
P    1   1.00
      1.5000000              1.0000000
P    1   1.00
      0.3750000              1.0000000
****
B     0
S    6   1.00
   2068.8823000              0.0018663
    310.6495700              0.0142515
     70.6830330              0.0695516
     19.8610800              0.2325729
      6.2993048              0.4670787
      2.1270270              0.3634314
SP   3   1.00
      4.7279710             -0.1303938              0.0745976
      1.1903377             -0.1307889              0.3078467
      0.3594117              1.1309444              0.7434568
SP   1   1.00
      0.1267512              1.0000000              1.0000000
D    1   1.00
      0.8020000              1.0000000
D    1   1.00
      0.2005000              1.0000000
F    1   1.00
      0.5000000              1.0000000
****
C     0
S    6   1.00
   3047.5249000              0.0018347
    457.3695100              0.0140373
    103.9486900              0.0688426
     29.2101550              0.2321844
      9.2866630              0.4679413
      3.1639270              0.3623120
SP   3   1.00
      7.8682724             -0.1193324              0.0689991
      1.8812885             -0.1608542              0.3164240
      0.5442493              1.1434564              0.7443083
SP   1   1.00
      0.1687144              1.0000000              1.0000000
D    1   1.00
      1.2520000              1.0000000
D    1   1.00
      0.3130000              1.0000000
F    1   1.00
      0.8000000              1.0000000
****
N     0
S    6   1.00
   4173.5110000              0.0018348
    627.4579000              0.0139950
    142.9021000              0.0685870
     40.2343300              0.2322410
     12.8202100              0.4690700
      4.3904370              0.3604550
SP   3   1.00
     11.6263580             -0.1149610              0.0675800
      2.7162800             -0.1691180              0.3239070
      0.7722180              1.1458520              0.7408950
SP   1   1.00
      0.2120313              1.0000000              1.0000000
D    1   1.00
      1.8260000              1.0000000
D    1   1.00
      0.4565000              1.0000000
F    1   1.00
      1.0000000              1.0000000
****
O     0
S    6   1.00
   5484.6717000              0.0018311
    825.2349500              0.0139501
    188.0469600              0.0684451
     52.9645000              0.2327143
     16.8975700              0.4701930
      5.7996353              0.3585209
SP   3   1.00
     15.5396160             -0.1107775              0.0708743
      3.5999336             -0.1480263              0.3397528
      1.0137618              1.1307670              0.7271586
SP   1   1.00
      0.2700058              1.0000000              1.0000000
D    1   1.00
      2.5840000              1.0000000
D    1   1.00
      0.6460000              1.0000000
F    1   1.00
      1.4000000              1.0000000
****
F     0
S    6   1.00
   7001.7130900              0.0018196169
   1051.3660900              0.0139160796
    239.2856900              0.0684053245
     67.3974453              0.233185760
     21.5199573              0.471267439
      7.40310130             0.356618546
SP   3   1.00
     20.8479528             -0.108506975            0.0716287243
      4.80830834            -0.146451658            0.3459121030
      1.34406986             1.128688580            0.7224699570
SP   1   1.00
      0.358151393            1.0000000              1.0000000
D    1   1.00
      3.5000000              1.0000000
D    1   1.00
      0.8750000              1.0000000
F    1   1.00
      1.8500000              1.0000000
****
Al     0
S    6   1.00
  13983.1000000              0.00194267
   2098.7500000              0.0148599
    477.7050000              0.0728494
    134.3600000              0.2468300
     42.8709000              0.4872580
     14.5189000              0.3234960
SP   6   1.00
    239.6680000             -0.00292619             0.00460285
     57.4419000             -0.0374080              0.0331990
     18.2859000             -0.1144870              0.1362820
      6.5991400              0.1156350              0.3304760
      2.4904900              0.6125950              0.4491460
      0.9445400              0.3937990              0.2657040
SP   3   1.00
      1.2779000             -0.2276060             -0.0175130
      0.3975900              0.00144583             0.2445330
      0.1600950              1.0927900              0.8049340
SP   1   1.00
      0.0556577              1.0000000              1.0000000
D    1   1.00
      0.6500000              1.0000000
D    1   1.00
      0.1625000              1.0000000
F    1   1.00
      0.2500000              1.0000000
****
Si     0
S    6   1.00
  16115.9000000              0.00195948
   2425.5800000              0.01492880
    553.8670000              0.07284780
    156.3400000              0.24613000
     50.0683000              0.48591400
     17.0178000              0.32500200
SP   6   1.00
    292.7180000             -0.00278094             0.00443826
     69.8731000             -0.03571460             0.03266790
     22.3363000             -0.11498500             0.13472100
      8.1503900              0.09356340             0.32867800
      3.1345800              0.60301700             0.44964000
      1.2254300              0.41895900             0.26137200
SP   3   1.00
      1.7273800             -0.24463000            -0.01779510
      0.5729220              0.00431572             0.25353900
      0.2221920              1.09818000             0.80066900
SP   1   1.00
      0.0778369              1.00000000             1.00000000
D    1   1.00
      0.9000000              1.0000000
D    1   1.00
      0.2250000              1.0000000
F    1   1.00
      0.3200000              1.0000000
****
P     0
S    6   1.00
  19413.3000000              0.0018516
   2909.4200000              0.0142062
    661.3640000              0.0699995
    185.7590000              0.2400790
     59.1943000              0.4847620
     20.0310000              0.3352000
SP   6   1.00
    339.4780000             -0.00278217             0.00456462
     81.0101000             -0.0360499              0.03369360
     25.8780000             -0.1166310              0.13975500
      9.4522100              0.0968328              0.33936200
      3.6656600              0.6144180              0.45092100
      1.4674600              0.4037980              0.23858600
SP   3   1.00
      2.1562300             -0.2529230             -0.01776530
      0.7489970              0.0328517              0.27405800
      0.2831450              1.0812500              0.78542100
SP   1   1.00
      0.0998317              1.0000000              1.00000000
D    1   1.00
      1.1000000              1.0000000
D    1   1.00
      0.2750000              1.0000000
F    1   1.00
      0.4500000              1.0000000
****
S     0
S    6   1.00
  21917.1000000              0.0018690
   3301.4900000              0.0142300
    754.1460000              0.0696960
    212.7110000              0.2384870
     67.9896000              0.4833070
     23.0515000              0.3380740
SP   6   1.00
    423.7350000             -0.0023767              0.0040610
    100.7100000             -0.0316930              0.0306810
     32.1599000             -0.1133170              0.1304520
     11.8079000              0.0560900              0.3272050
      4.6311000              0.5922550              0.4528510
      1.8702500              0.4550060              0.2560420
SP   3   1.00
      2.6158400             -0.2503740             -0.0145110
      0.9221670              0.0669570              0.3102630
      0.3412870              1.0545100              0.7544830
SP   1   1.00
      0.1171670              1.0000000              1.0000000
D    1   1.00
      1.3000000              1.0000000
D    1   1.00
      0.3250000              1.0000000
F    1   1.00
      0.5500000              1.0000000
****
Cl     0
S    6   1.00
  25180.1000000              0.0018330
   3780.3500000              0.0140340
    860.4740000              0.0690970
    242.1450000              0.2374520
     77.3349000              0.4830340
     26.2470000              0.3398560
SP   6   1.00
    491.7650000             -0.0022974              0.0039894
    116.9840000             -0.0307140              0.0303180
     37.4153000             -0.1125280              0.1298800
     13.7834000              0.0450160              0.3279510
      5.4521500              0.5893530              0.4535270
      2.2258800              0.4652060              0.2521540
SP   3   1.00
      3.1864900             -0.2518300             -0.0142990
      1.1442700              0.0615890              0.3235720
      0.4203770              1.0601800              0.7435070
SP   1   1.00
      0.1426570              1.0000000              1.0000000
D    1   1.00
      1.5000000              1.0000000
D    1   1.00
      0.3750000              1.0000000
F    1   1.00
      0.7000000              1.0000000
****
}

set {
reference uhf
freeze_core true
e_convergence 10
d_convergence 10
dft_spherical_points 1202
dft_radial_points 99
}

e = energy('b3lyp')

print_out('Grab this energy {0}'.format(e))
--------------------------------------------------------------------------

    Molecular point group: c1

    Geometry (in Bohr), charge = 0, multiplicity = 2:

       Center              X                  Y                   Z               Mass
    ------------   -----------------  -----------------  -----------------  -----------------
         C           -0.005497564450    -1.358450025035    -0.001024975072    12.000000000000
         C           -0.019344810750     1.469471160965     0.002418928828    12.000000000000
         H            1.928675885550    -2.117111280835    -0.002988748972     1.007825032230
         H           -0.945227959250    -2.120531887235     1.670099611528     1.007825032230
         H           -0.944231308650    -2.121739135335    -1.675580650172     1.007825032230
         H            0.128121390850     2.519368751865    -1.752573522972     1.007825032230
         H            0.128455897050     2.518103905965     1.744445742028     1.007825032230

  Charge       = 0
  Multiplicity = 2
  Basis Set: ANONYMOUSB16ABC76
    Blend: 6-31G_2DFP_
  Basis Set: (ANONYMOUSB16ABC76 AUX)
    Blend: DEF2-UNIVERSAL-JKFIT

    Orbital Energies [Eh]
    ---------------------

    Alpha Occupied:

       1A    -10.180065     2A    -10.174777     3A     -0.750563
       4A     -0.605253     5A     -0.445508     6A     -0.410098
       7A     -0.384938     8A     -0.354403     9A     -0.197665

    Alpha Virtual:

      10A      0.099062    11A      0.127450    12A      0.141028
      13A      0.165561    14A      0.202985    15A      0.246135
      16A      0.429912    17A      0.440500    18A      0.446375
      19A      0.450315    20A      0.478467    21A      0.520719
      22A      0.543689    23A      0.573863    24A      0.593011
      25A      0.618701    26A      0.633513    27A      0.639355
      28A      0.649241    29A      0.741044    30A      0.821775
      31A      0.865686    32A      0.930056    33A      0.977301
      34A      1.023386    35A      1.071029    36A      1.082329
      37A      1.084528    38A      1.179697    39A      1.220300
      40A      1.253662    41A      1.323453    42A      1.342781
      43A      1.367115    44A      1.419294    45A      1.444544
      46A      1.508644    47A      1.522801    48A      1.602459
      49A      1.763088    50A      1.804821    51A      1.950739
      52A      2.049699    53A      2.098202    54A      2.697217
      55A      2.800257    56A      2.827960    57A      2.860252
      58A      2.928951    59A      2.962620    60A      2.986409
      61A      3.079944    62A      3.092657    63A      3.158719
      64A      3.169524    65A      3.199103    66A      3.300178
      67A      3.356633    68A      3.389714    69A      3.495002
      70A      3.498132    71A      3.580365    72A      3.593567
      73A      3.707687    74A      3.800288    75A      3.970828
      76A      4.021774    77A      4.087534    78A      4.126351
      79A      4.188401    80A      4.196918    81A      4.203593
      82A      4.288685    83A      4.367073    84A      4.486781
      85A      4.496407    86A      4.522224    87A      4.863861
      88A      4.923256    89A      5.144674    90A      5.165919
      91A      5.277038    92A      5.323693

    Beta Occupied:

       1A    -10.175596     2A    -10.166108     3A     -0.733960
       4A     -0.580579     5A     -0.439379     6A     -0.395604
       7A     -0.377019     8A     -0.349948

    Beta Virtual:

       9A     -0.036179    10A      0.101688    11A      0.138688
      12A      0.142660    13A      0.170356    14A      0.206594
      15A      0.251959    16A      0.441470    17A      0.445377
      18A      0.456023    19A      0.458680    20A      0.486992
      21A      0.548307    22A      0.587348    23A      0.592772
      24A      0.601851    25A      0.623998    26A      0.641370
      27A      0.645131    28A      0.656697    29A      0.766495
      30A      0.821564    31A      0.868685    32A      0.947782
      33A      0.988443    34A      1.031988    35A      1.078931
      36A      1.086568    37A      1.102308    38A      1.183332
      39A      1.228018    40A      1.266024    41A      1.330094
      42A      1.350302    43A      1.373358    44A      1.425218
      45A      1.451933    46A      1.513269    47A      1.534156
      48A      1.613356    49A      1.769562    50A      1.810941
      51A      1.955100    52A      2.059657    53A      2.103671
      54A      2.720397    55A      2.822112    56A      2.829890
      57A      2.876422    58A      2.931429    59A      2.989580
      60A      3.023129    61A      3.093216    62A      3.119860
      63A      3.176359    64A      3.209930    65A      3.218117
      66A      3.338924    67A      3.369017    68A      3.408752
      69A      3.519008    70A      3.537799    71A      3.596409
      72A      3.603546    73A      3.725930    74A      3.800574
      75A      3.981672    76A      4.031424    77A      4.093401
      78A      4.135736    79A      4.201379    80A      4.202941
      81A      4.212716    82A      4.296590    83A      4.371252
      84A      4.493721    85A      4.506960    86A      4.529490
      87A      4.865210    88A      4.927492    89A      5.148477
      90A      5.176316    91A      5.284074    92A      5.326192

    Final Occupation by Irrep:
              A
    DOCC [     8 ]
    SOCC [     1 ]

  @DF-UKS Final Energy:   -79.16613974974396

   => Energetics <=

    Nuclear Repulsion Energy =             36.8666083282461159
    One-Electron Energy =                -177.9489661171502064
    Two-Electron Energy =                  72.1951202522025568
    DFT Exchange-Correlation Energy =     -10.2789022130424215
    Empirical Dispersion Energy =           0.0000000000000000
    VV10 Nonlocal Energy =                  0.0000000000000000
    Total Energy =                        -79.1661397497439623

  UHF NO Occupations:
  HONO-2 :    7  A 1.9997299
  HONO-1 :    8  A 1.9987019
  HONO-0 :    9  A 1.0000000
  LUNO+0 :   10  A 0.0012981
  LUNO+1 :   11  A 0.0002701
  LUNO+2 :   12  A 0.0002476
  LUNO+3 :   13  A 0.0002231

Computation Completed

Properties will be evaluated at   0.000000,   0.000000,   0.000000 [a0]

Properties computed using the SCF density matrix

  Nuclear Dipole Moment: [e a0]
     X:     0.1467      Y:    -0.6558      Z:    -0.0082

  Electronic Dipole Moment: [e a0]
     X:    -0.1043      Y:     0.5710      Z:     0.0093

  Dipole Moment: [e a0]
     X:     0.0425      Y:    -0.0848      Z:     0.0011     Total:     0.0949

  Dipole Moment: [D]
     X:     0.1079      Y:    -0.2156      Z:     0.0027     Total:     0.2411

*** tstop() called on n071 at Fri Nov  5 19:07:43 2021
Module time:
	user time   =      50.91 seconds =       0.85 minutes
	system time =       0.62 seconds =       0.01 minutes
	total time  =         52 seconds =       0.87 minutes
Total time:
	user time   =      50.91 seconds =       0.85 minutes
	system time =       0.62 seconds =       0.01 minutes
	total time  =         52 seconds =       0.87 minutes
Grab this energy -79.16613974974396
    Psi4 stopped on: Friday, 05 November 2021 07:07PM
    Psi4 wall time for execution: 0:00:51.60

*** Psi4 exiting successfully. Buy a developer a beer!
