                               Psi4 1.4a2.dev629

  ==> Input File <==

--------------------------------------------------------------------------
import os
memory 14 GB

molecule {
 C   -0.0055050631   -1.3542679891   -0.0025326176
 C   -0.0191105550    1.4644001912    0.0008782957
 H    1.9276057320   -2.1107516650    0.0009621045
 H   -0.9439515021   -2.1158665332    1.6722477125
 H   -0.9445230203   -2.1160377011   -1.6713640789
 H    0.1282578470    2.5104027048   -1.7422952208
 H    0.1282791378    2.5104307247    1.7421038044
units bohr
0 2
}

basis {

assign 6-31g_2dfp_

[ 6-31g_2dfp_ ]

spherical

!----------------------------------------------------------------------
! Basis Set Exchange
! Version v0.8.13
! https://www.basissetexchange.org
!----------------------------------------------------------------------
!   Basis set: 6-31G(2df,p)
! Description: 6-31G(2df,p)
!        Role: orbital
!     Version: 0  (Data from the original Basis Set Exchange)
!----------------------------------------------------------------------

****
H     0
S    3   1.00
     18.7311370              0.03349460
      2.8253937              0.23472695
      0.6401217              0.81375733
S    1   1.00
      0.1612778              1.00000000
P    1   1.00
      1.5000000              1.0000000
P    1   1.00
      0.3750000              1.0000000
****
B     0
S    6   1.00
   2068.8823000              0.0018663
    310.6495700              0.0142515
     70.6830330              0.0695516
     19.8610800              0.2325729
      6.2993048              0.4670787
      2.1270270              0.3634314
SP   3   1.00
      4.7279710             -0.1303938              0.0745976
      1.1903377             -0.1307889              0.3078467
      0.3594117              1.1309444              0.7434568
SP   1   1.00
      0.1267512              1.0000000              1.0000000
D    1   1.00
      0.8020000              1.0000000
D    1   1.00
      0.2005000              1.0000000
F    1   1.00
      0.5000000              1.0000000
****
C     0
S    6   1.00
   3047.5249000              0.0018347
    457.3695100              0.0140373
    103.9486900              0.0688426
     29.2101550              0.2321844
      9.2866630              0.4679413
      3.1639270              0.3623120
SP   3   1.00
      7.8682724             -0.1193324              0.0689991
      1.8812885             -0.1608542              0.3164240
      0.5442493              1.1434564              0.7443083
SP   1   1.00
      0.1687144              1.0000000              1.0000000
D    1   1.00
      1.2520000              1.0000000
D    1   1.00
      0.3130000              1.0000000
F    1   1.00
      0.8000000              1.0000000
****
N     0
S    6   1.00
   4173.5110000              0.0018348
    627.4579000              0.0139950
    142.9021000              0.0685870
     40.2343300              0.2322410
     12.8202100              0.4690700
      4.3904370              0.3604550
SP   3   1.00
     11.6263580             -0.1149610              0.0675800
      2.7162800             -0.1691180              0.3239070
      0.7722180              1.1458520              0.7408950
SP   1   1.00
      0.2120313              1.0000000              1.0000000
D    1   1.00
      1.8260000              1.0000000
D    1   1.00
      0.4565000              1.0000000
F    1   1.00
      1.0000000              1.0000000
****
O     0
S    6   1.00
   5484.6717000              0.0018311
    825.2349500              0.0139501
    188.0469600              0.0684451
     52.9645000              0.2327143
     16.8975700              0.4701930
      5.7996353              0.3585209
SP   3   1.00
     15.5396160             -0.1107775              0.0708743
      3.5999336             -0.1480263              0.3397528
      1.0137618              1.1307670              0.7271586
SP   1   1.00
      0.2700058              1.0000000              1.0000000
D    1   1.00
      2.5840000              1.0000000
D    1   1.00
      0.6460000              1.0000000
F    1   1.00
      1.4000000              1.0000000
****
F     0
S    6   1.00
   7001.7130900              0.0018196169
   1051.3660900              0.0139160796
    239.2856900              0.0684053245
     67.3974453              0.233185760
     21.5199573              0.471267439
      7.40310130             0.356618546
SP   3   1.00
     20.8479528             -0.108506975            0.0716287243
      4.80830834            -0.146451658            0.3459121030
      1.34406986             1.128688580            0.7224699570
SP   1   1.00
      0.358151393            1.0000000              1.0000000
D    1   1.00
      3.5000000              1.0000000
D    1   1.00
      0.8750000              1.0000000
F    1   1.00
      1.8500000              1.0000000
****
Al     0
S    6   1.00
  13983.1000000              0.00194267
   2098.7500000              0.0148599
    477.7050000              0.0728494
    134.3600000              0.2468300
     42.8709000              0.4872580
     14.5189000              0.3234960
SP   6   1.00
    239.6680000             -0.00292619             0.00460285
     57.4419000             -0.0374080              0.0331990
     18.2859000             -0.1144870              0.1362820
      6.5991400              0.1156350              0.3304760
      2.4904900              0.6125950              0.4491460
      0.9445400              0.3937990              0.2657040
SP   3   1.00
      1.2779000             -0.2276060             -0.0175130
      0.3975900              0.00144583             0.2445330
      0.1600950              1.0927900              0.8049340
SP   1   1.00
      0.0556577              1.0000000              1.0000000
D    1   1.00
      0.6500000              1.0000000
D    1   1.00
      0.1625000              1.0000000
F    1   1.00
      0.2500000              1.0000000
****
Si     0
S    6   1.00
  16115.9000000              0.00195948
   2425.5800000              0.01492880
    553.8670000              0.07284780
    156.3400000              0.24613000
     50.0683000              0.48591400
     17.0178000              0.32500200
SP   6   1.00
    292.7180000             -0.00278094             0.00443826
     69.8731000             -0.03571460             0.03266790
     22.3363000             -0.11498500             0.13472100
      8.1503900              0.09356340             0.32867800
      3.1345800              0.60301700             0.44964000
      1.2254300              0.41895900             0.26137200
SP   3   1.00
      1.7273800             -0.24463000            -0.01779510
      0.5729220              0.00431572             0.25353900
      0.2221920              1.09818000             0.80066900
SP   1   1.00
      0.0778369              1.00000000             1.00000000
D    1   1.00
      0.9000000              1.0000000
D    1   1.00
      0.2250000              1.0000000
F    1   1.00
      0.3200000              1.0000000
****
P     0
S    6   1.00
  19413.3000000              0.0018516
   2909.4200000              0.0142062
    661.3640000              0.0699995
    185.7590000              0.2400790
     59.1943000              0.4847620
     20.0310000              0.3352000
SP   6   1.00
    339.4780000             -0.00278217             0.00456462
     81.0101000             -0.0360499              0.03369360
     25.8780000             -0.1166310              0.13975500
      9.4522100              0.0968328              0.33936200
      3.6656600              0.6144180              0.45092100
      1.4674600              0.4037980              0.23858600
SP   3   1.00
      2.1562300             -0.2529230             -0.01776530
      0.7489970              0.0328517              0.27405800
      0.2831450              1.0812500              0.78542100
SP   1   1.00
      0.0998317              1.0000000              1.00000000
D    1   1.00
      1.1000000              1.0000000
D    1   1.00
      0.2750000              1.0000000
F    1   1.00
      0.4500000              1.0000000
****
S     0
S    6   1.00
  21917.1000000              0.0018690
   3301.4900000              0.0142300
    754.1460000              0.0696960
    212.7110000              0.2384870
     67.9896000              0.4833070
     23.0515000              0.3380740
SP   6   1.00
    423.7350000             -0.0023767              0.0040610
    100.7100000             -0.0316930              0.0306810
     32.1599000             -0.1133170              0.1304520
     11.8079000              0.0560900              0.3272050
      4.6311000              0.5922550              0.4528510
      1.8702500              0.4550060              0.2560420
SP   3   1.00
      2.6158400             -0.2503740             -0.0145110
      0.9221670              0.0669570              0.3102630
      0.3412870              1.0545100              0.7544830
SP   1   1.00
      0.1171670              1.0000000              1.0000000
D    1   1.00
      1.3000000              1.0000000
D    1   1.00
      0.3250000              1.0000000
F    1   1.00
      0.5500000              1.0000000
****
Cl     0
S    6   1.00
  25180.1000000              0.0018330
   3780.3500000              0.0140340
    860.4740000              0.0690970
    242.1450000              0.2374520
     77.3349000              0.4830340
     26.2470000              0.3398560
SP   6   1.00
    491.7650000             -0.0022974              0.0039894
    116.9840000             -0.0307140              0.0303180
     37.4153000             -0.1125280              0.1298800
     13.7834000              0.0450160              0.3279510
      5.4521500              0.5893530              0.4535270
      2.2258800              0.4652060              0.2521540
SP   3   1.00
      3.1864900             -0.2518300             -0.0142990
      1.1442700              0.0615890              0.3235720
      0.4203770              1.0601800              0.7435070
SP   1   1.00
      0.1426570              1.0000000              1.0000000
D    1   1.00
      1.5000000              1.0000000
D    1   1.00
      0.3750000              1.0000000
F    1   1.00
      0.7000000              1.0000000
****
}

set {
reference uhf
freeze_core true
e_convergence 10
d_convergence 10
dft_spherical_points 1202
dft_radial_points 99
}

e = energy('b3lyp')

print_out('Grab this energy {0}'.format(e))
--------------------------------------------------------------------------

    Molecular point group: c1

    Geometry (in Bohr), charge = 0, multiplicity = 2:

       Center              X                  Y                   Z               Mass
    ------------   -----------------  -----------------  -----------------  -----------------
         C           -0.005594404302    -1.353903675507    -0.001906407414    12.000000000000
         C           -0.019199896202     1.464764504793     0.001504505886    12.000000000000
         H            1.927516390798    -2.110387351407     0.001588314686     1.007825032230
         H           -0.944040843302    -2.115502219607     1.672873922686     1.007825032230
         H           -0.944612361502    -2.115673387507    -1.670737868714     1.007825032230
         H            0.128168505798     2.510767018393    -1.741669010614     1.007825032230
         H            0.128189796598     2.510795038293     1.742730014586     1.007825032230

  Charge       = 0
  Multiplicity = 2
  Basis Set: ANONYMOUSA7F62CC9
    Blend: 6-31G_2DFP_
  Basis Set: (ANONYMOUSA7F62CC9 AUX)
    Blend: DEF2-UNIVERSAL-JKFIT

    Orbital Energies [Eh]
    ---------------------

    Alpha Occupied:

       1A    -10.178806     2A    -10.174092     3A     -0.751797
       4A     -0.605556     5A     -0.446448     6A     -0.410668
       7A     -0.385689     8A     -0.354362     9A     -0.197287

    Alpha Virtual:

      10A      0.099337    11A      0.128516    12A      0.141334
      13A      0.165812    14A      0.203697    15A      0.247673
      16A      0.430473    17A      0.440730    18A      0.446317
      19A      0.449960    20A      0.478812    21A      0.520977
      22A      0.544033    23A      0.574859    24A      0.594929
      25A      0.619171    26A      0.634302    27A      0.640071
      28A      0.651143    29A      0.741327    30A      0.823693
      31A      0.865993    32A      0.931406    33A      0.978775
      34A      1.025139    35A      1.072531    36A      1.083681
      37A      1.086985    38A      1.179904    39A      1.220611
      40A      1.254321    41A      1.324138    42A      1.345337
      43A      1.367891    44A      1.420887    45A      1.446300
      46A      1.511745    47A      1.525025    48A      1.606883
      49A      1.766372    50A      1.807745    51A      1.952633
      52A      2.055392    53A      2.104020    54A      2.698534
      55A      2.801587    56A      2.830011    57A      2.860965
      58A      2.929006    59A      2.963956    60A      2.986896
      61A      3.079468    62A      3.092791    63A      3.158236
      64A      3.170962    65A      3.199573    66A      3.299048
      67A      3.359425    68A      3.389551    69A      3.494040
      70A      3.499460    71A      3.581996    72A      3.594976
      73A      3.713609    74A      3.807069    75A      3.974659
      76A      4.025534    77A      4.092245    78A      4.131203
      79A      4.194272    80A      4.199801    81A      4.206287
      82A      4.296435    83A      4.369656    84A      4.492748
      85A      4.502737    86A      4.529260    87A      4.871760
      88A      4.925257    89A      5.158200    90A      5.172109
      91A      5.280138    92A      5.331431

    Beta Occupied:

       1A    -10.174912     2A    -10.164875     3A     -0.735098
       4A     -0.581009     5A     -0.440274     6A     -0.395996
       7A     -0.377749     8A     -0.349896

    Beta Virtual:

       9A     -0.036059    10A      0.101899    11A      0.139679
      12A      0.142929    13A      0.170644    14A      0.207286
      15A      0.253404    16A      0.441806    17A      0.445085
      18A      0.455655    19A      0.459330    20A      0.487846
      21A      0.549302    22A      0.588326    23A      0.592431
      24A      0.603619    25A      0.624568    26A      0.642169
      27A      0.645966    28A      0.658590    29A      0.766592
      30A      0.823527    31A      0.869030    32A      0.949102
      33A      0.989968    34A      1.033747    35A      1.080435
      36A      1.088264    37A      1.104433    38A      1.183564
      39A      1.228353    40A      1.266662    41A      1.330643
      42A      1.352848    43A      1.374208    44A      1.426839
      45A      1.453787    46A      1.516387    47A      1.536433
      48A      1.617868    49A      1.772927    50A      1.814005
      51A      1.957067    52A      2.065441    53A      2.109538
      54A      2.721758    55A      2.823357    56A      2.831946
      57A      2.877003    58A      2.931518    59A      2.990533
      60A      3.023801    61A      3.092927    62A      3.120248
      63A      3.175854    64A      3.210965    65A      3.217778
      66A      3.338478    67A      3.371938    68A      3.408520
      69A      3.519064    70A      3.536757    71A      3.598877
      72A      3.605148    73A      3.731613    74A      3.807405
      75A      3.985024    76A      4.035618    77A      4.098124
      78A      4.140677    79A      4.203539    80A      4.209757
      81A      4.215663    82A      4.304490    83A      4.373940
      84A      4.499840    85A      4.513368    86A      4.536486
      87A      4.873143    88A      4.929561    89A      5.161572
      90A      5.183042    91A      5.287268    92A      5.333978

    Final Occupation by Irrep:
              A
    DOCC [     8 ]
    SOCC [     1 ]

  @DF-UKS Final Energy:   -79.16613657233685

   => Energetics <=

    Nuclear Repulsion Energy =             36.9600947185786310
    One-Electron Energy =                -178.1297169561206601
    Two-Electron Energy =                  72.2869636024602045
    DFT Exchange-Correlation Energy =     -10.2834779372550233
    Empirical Dispersion Energy =           0.0000000000000000
    VV10 Nonlocal Energy =                  0.0000000000000000
    Total Energy =                        -79.1661365723368533

  UHF NO Occupations:
  HONO-2 :    7  A 1.9997342
  HONO-1 :    8  A 1.9987166
  HONO-0 :    9  A 1.0000000
  LUNO+0 :   10  A 0.0012834
  LUNO+1 :   11  A 0.0002658
  LUNO+2 :   12  A 0.0002498
  LUNO+3 :   13  A 0.0002208

Computation Completed

Properties will be evaluated at   0.000000,   0.000000,   0.000000 [a0]

Properties computed using the SCF density matrix

  Nuclear Dipole Moment: [e a0]
     X:     0.1465      Y:    -0.6548      Z:     0.0024

  Electronic Dipole Moment: [e a0]
     X:    -0.1038      Y:     0.5705      Z:    -0.0024

  Dipole Moment: [e a0]
     X:     0.0427      Y:    -0.0844      Z:     0.0000     Total:     0.0946

  Dipole Moment: [D]
     X:     0.1085      Y:    -0.2144      Z:     0.0000     Total:     0.2403

*** tstop() called on n044 at Fri Nov  5 17:24:50 2021
Module time:
	user time   =      61.60 seconds =       1.03 minutes
	system time =       0.44 seconds =       0.01 minutes
	total time  =         62 seconds =       1.03 minutes
Total time:
	user time   =      61.60 seconds =       1.03 minutes
	system time =       0.44 seconds =       0.01 minutes
	total time  =         62 seconds =       1.03 minutes
Grab this energy -79.16613657233685
    Psi4 stopped on: Friday, 05 November 2021 05:24PM
    Psi4 wall time for execution: 0:01:02.08

*** Psi4 exiting successfully. Buy a developer a beer!
