                               Psi4 1.4a2.dev629

  ==> Input File <==

--------------------------------------------------------------------------
import os
memory 14 GB

molecule {
 C   -0.0055082434   -1.3584248764    0.0000000000
 C   -0.0190686192    1.4682600762   -0.0000000000
 H    1.9281494415   -2.1162942039    0.0000000000
 H   -0.9446260326   -2.1211001688    1.6724079183
 H   -0.9446260326   -2.1211001688   -1.6724079183
 H    0.1283660313    2.5184845370   -1.7412074538
 H    0.1283660313    2.5184845370    1.7412074538
units bohr
0 2
}

basis {

assign 6-31g_2dfp_

[ 6-31g_2dfp_ ]

spherical

!----------------------------------------------------------------------
! Basis Set Exchange
! Version v0.8.13
! https://www.basissetexchange.org
!----------------------------------------------------------------------
!   Basis set: 6-31G(2df,p)
! Description: 6-31G(2df,p)
!        Role: orbital
!     Version: 0  (Data from the original Basis Set Exchange)
!----------------------------------------------------------------------

****
H     0
S    3   1.00
     18.7311370              0.03349460
      2.8253937              0.23472695
      0.6401217              0.81375733
S    1   1.00
      0.1612778              1.00000000
P    1   1.00
      1.5000000              1.0000000
P    1   1.00
      0.3750000              1.0000000
****
B     0
S    6   1.00
   2068.8823000              0.0018663
    310.6495700              0.0142515
     70.6830330              0.0695516
     19.8610800              0.2325729
      6.2993048              0.4670787
      2.1270270              0.3634314
SP   3   1.00
      4.7279710             -0.1303938              0.0745976
      1.1903377             -0.1307889              0.3078467
      0.3594117              1.1309444              0.7434568
SP   1   1.00
      0.1267512              1.0000000              1.0000000
D    1   1.00
      0.8020000              1.0000000
D    1   1.00
      0.2005000              1.0000000
F    1   1.00
      0.5000000              1.0000000
****
C     0
S    6   1.00
   3047.5249000              0.0018347
    457.3695100              0.0140373
    103.9486900              0.0688426
     29.2101550              0.2321844
      9.2866630              0.4679413
      3.1639270              0.3623120
SP   3   1.00
      7.8682724             -0.1193324              0.0689991
      1.8812885             -0.1608542              0.3164240
      0.5442493              1.1434564              0.7443083
SP   1   1.00
      0.1687144              1.0000000              1.0000000
D    1   1.00
      1.2520000              1.0000000
D    1   1.00
      0.3130000              1.0000000
F    1   1.00
      0.8000000              1.0000000
****
N     0
S    6   1.00
   4173.5110000              0.0018348
    627.4579000              0.0139950
    142.9021000              0.0685870
     40.2343300              0.2322410
     12.8202100              0.4690700
      4.3904370              0.3604550
SP   3   1.00
     11.6263580             -0.1149610              0.0675800
      2.7162800             -0.1691180              0.3239070
      0.7722180              1.1458520              0.7408950
SP   1   1.00
      0.2120313              1.0000000              1.0000000
D    1   1.00
      1.8260000              1.0000000
D    1   1.00
      0.4565000              1.0000000
F    1   1.00
      1.0000000              1.0000000
****
O     0
S    6   1.00
   5484.6717000              0.0018311
    825.2349500              0.0139501
    188.0469600              0.0684451
     52.9645000              0.2327143
     16.8975700              0.4701930
      5.7996353              0.3585209
SP   3   1.00
     15.5396160             -0.1107775              0.0708743
      3.5999336             -0.1480263              0.3397528
      1.0137618              1.1307670              0.7271586
SP   1   1.00
      0.2700058              1.0000000              1.0000000
D    1   1.00
      2.5840000              1.0000000
D    1   1.00
      0.6460000              1.0000000
F    1   1.00
      1.4000000              1.0000000
****
F     0
S    6   1.00
   7001.7130900              0.0018196169
   1051.3660900              0.0139160796
    239.2856900              0.0684053245
     67.3974453              0.233185760
     21.5199573              0.471267439
      7.40310130             0.356618546
SP   3   1.00
     20.8479528             -0.108506975            0.0716287243
      4.80830834            -0.146451658            0.3459121030
      1.34406986             1.128688580            0.7224699570
SP   1   1.00
      0.358151393            1.0000000              1.0000000
D    1   1.00
      3.5000000              1.0000000
D    1   1.00
      0.8750000              1.0000000
F    1   1.00
      1.8500000              1.0000000
****
Al     0
S    6   1.00
  13983.1000000              0.00194267
   2098.7500000              0.0148599
    477.7050000              0.0728494
    134.3600000              0.2468300
     42.8709000              0.4872580
     14.5189000              0.3234960
SP   6   1.00
    239.6680000             -0.00292619             0.00460285
     57.4419000             -0.0374080              0.0331990
     18.2859000             -0.1144870              0.1362820
      6.5991400              0.1156350              0.3304760
      2.4904900              0.6125950              0.4491460
      0.9445400              0.3937990              0.2657040
SP   3   1.00
      1.2779000             -0.2276060             -0.0175130
      0.3975900              0.00144583             0.2445330
      0.1600950              1.0927900              0.8049340
SP   1   1.00
      0.0556577              1.0000000              1.0000000
D    1   1.00
      0.6500000              1.0000000
D    1   1.00
      0.1625000              1.0000000
F    1   1.00
      0.2500000              1.0000000
****
Si     0
S    6   1.00
  16115.9000000              0.00195948
   2425.5800000              0.01492880
    553.8670000              0.07284780
    156.3400000              0.24613000
     50.0683000              0.48591400
     17.0178000              0.32500200
SP   6   1.00
    292.7180000             -0.00278094             0.00443826
     69.8731000             -0.03571460             0.03266790
     22.3363000             -0.11498500             0.13472100
      8.1503900              0.09356340             0.32867800
      3.1345800              0.60301700             0.44964000
      1.2254300              0.41895900             0.26137200
SP   3   1.00
      1.7273800             -0.24463000            -0.01779510
      0.5729220              0.00431572             0.25353900
      0.2221920              1.09818000             0.80066900
SP   1   1.00
      0.0778369              1.00000000             1.00000000
D    1   1.00
      0.9000000              1.0000000
D    1   1.00
      0.2250000              1.0000000
F    1   1.00
      0.3200000              1.0000000
****
P     0
S    6   1.00
  19413.3000000              0.0018516
   2909.4200000              0.0142062
    661.3640000              0.0699995
    185.7590000              0.2400790
     59.1943000              0.4847620
     20.0310000              0.3352000
SP   6   1.00
    339.4780000             -0.00278217             0.00456462
     81.0101000             -0.0360499              0.03369360
     25.8780000             -0.1166310              0.13975500
      9.4522100              0.0968328              0.33936200
      3.6656600              0.6144180              0.45092100
      1.4674600              0.4037980              0.23858600
SP   3   1.00
      2.1562300             -0.2529230             -0.01776530
      0.7489970              0.0328517              0.27405800
      0.2831450              1.0812500              0.78542100
SP   1   1.00
      0.0998317              1.0000000              1.00000000
D    1   1.00
      1.1000000              1.0000000
D    1   1.00
      0.2750000              1.0000000
F    1   1.00
      0.4500000              1.0000000
****
S     0
S    6   1.00
  21917.1000000              0.0018690
   3301.4900000              0.0142300
    754.1460000              0.0696960
    212.7110000              0.2384870
     67.9896000              0.4833070
     23.0515000              0.3380740
SP   6   1.00
    423.7350000             -0.0023767              0.0040610
    100.7100000             -0.0316930              0.0306810
     32.1599000             -0.1133170              0.1304520
     11.8079000              0.0560900              0.3272050
      4.6311000              0.5922550              0.4528510
      1.8702500              0.4550060              0.2560420
SP   3   1.00
      2.6158400             -0.2503740             -0.0145110
      0.9221670              0.0669570              0.3102630
      0.3412870              1.0545100              0.7544830
SP   1   1.00
      0.1171670              1.0000000              1.0000000
D    1   1.00
      1.3000000              1.0000000
D    1   1.00
      0.3250000              1.0000000
F    1   1.00
      0.5500000              1.0000000
****
Cl     0
S    6   1.00
  25180.1000000              0.0018330
   3780.3500000              0.0140340
    860.4740000              0.0690970
    242.1450000              0.2374520
     77.3349000              0.4830340
     26.2470000              0.3398560
SP   6   1.00
    491.7650000             -0.0022974              0.0039894
    116.9840000             -0.0307140              0.0303180
     37.4153000             -0.1125280              0.1298800
     13.7834000              0.0450160              0.3279510
      5.4521500              0.5893530              0.4535270
      2.2258800              0.4652060              0.2521540
SP   3   1.00
      3.1864900             -0.2518300             -0.0142990
      1.1442700              0.0615890              0.3235720
      0.4203770              1.0601800              0.7435070
SP   1   1.00
      0.1426570              1.0000000              1.0000000
D    1   1.00
      1.5000000              1.0000000
D    1   1.00
      0.3750000              1.0000000
F    1   1.00
      0.7000000              1.0000000
****
}

set {
reference uhf
freeze_core true
e_convergence 10
d_convergence 10
dft_spherical_points 1202
dft_radial_points 99
}

e = energy('b3lyp')

print_out('Grab this energy {0}'.format(e))
--------------------------------------------------------------------------

    Molecular point group: cs

    Geometry (in Bohr), charge = 0, multiplicity = 2:

       Center              X                  Y                   Z               Mass
    ------------   -----------------  -----------------  -----------------  -----------------
         C           -0.005612254715    -1.357948138578     0.000000000000    12.000000000000
         C           -0.019172630515     1.468736814022     0.000000000000    12.000000000000
         H            1.928045430185    -2.115817466078     0.000000000000     1.007825032230
         H           -0.944730043915    -2.120623430978     1.672407918300     1.007825032230
         H           -0.944730043915    -2.120623430978    -1.672407918300     1.007825032230
         H            0.128262019985     2.518961274822    -1.741207453800     1.007825032230
         H            0.128262019985     2.518961274822     1.741207453800     1.007825032230

  Charge       = 0
  Multiplicity = 2
  Basis Set: ANONYMOUS01730611
    Blend: 6-31G_2DFP_
  Basis Set: (ANONYMOUS01730611 AUX)
    Blend: DEF2-UNIVERSAL-JKFIT

    Orbital Energies [Eh]
    ---------------------

    Alpha Occupied:

       1Ap   -10.179377     2Ap   -10.174666     3Ap    -0.750839
       4Ap    -0.605822     1App   -0.445703     5Ap    -0.410225
       6Ap    -0.385385     2App   -0.354516     7Ap    -0.197601

    Alpha Virtual:

       8Ap     0.099360     9Ap     0.127992     3App    0.141351
      10Ap     0.165634     4App    0.203405    11Ap     0.246602
      12Ap     0.430067     5App    0.440586    13Ap     0.446404
       6App    0.450304    14Ap     0.478655    15Ap     0.520774
      16Ap     0.543876     7App    0.574480    17Ap     0.593885
       8App    0.619114    18Ap     0.633807    19Ap     0.639686
       9App    0.650188    20Ap     0.741110    10App    0.822869
      11App    0.865799    21Ap     0.930275    22Ap     0.978947
      12App    1.023616    13App    1.072103    23Ap     1.081690
      24Ap     1.086478    25Ap     1.179695    14App    1.220441
      26Ap     1.254270    15App    1.324107    27Ap     1.343309
      28Ap     1.367511    29Ap     1.419973    16App    1.445057
      17App    1.510648    30Ap     1.523482    31Ap     1.605948
      32Ap     1.765018    33Ap     1.805893    18App    1.951256
      19App    2.055096    34Ap     2.099060    35Ap     2.697432
      36Ap     2.800710    20App    2.829088    21App    2.860734
      22App    2.929170    37Ap     2.963513    38Ap     2.986785
      23App    3.079245    39Ap     3.092176    24App    3.158260
      40Ap     3.169766    25App    3.199593    26App    3.298766
      41Ap     3.357843    42Ap     3.389120    43Ap     3.495024
      27App    3.498090    28App    3.581270    44Ap     3.593971
      45Ap     3.708945    29App    3.800718    46Ap     3.971776
      47Ap     4.023426    48Ap     4.091792    49Ap     4.128334
      30App    4.193236    31App    4.198421    50Ap     4.204722
      51Ap     4.290476    32App    4.367883    33App    4.489627
      52Ap     4.498110    53Ap     4.524182    34App    4.870526
      54Ap     4.924066    35App    5.158290    55Ap     5.167301
      56Ap     5.278130    36App    5.325870

    Beta Occupied:

       1Ap   -10.175485     2Ap   -10.165431     3Ap    -0.734188
       4Ap    -0.581221     1App   -0.439546     5Ap    -0.395716
       6Ap    -0.377457     2App   -0.350051

    Beta Virtual:

       7Ap    -0.036162     8Ap     0.101896     9Ap     0.139241
       3App    0.142942    10Ap     0.170427     4App    0.207004
      11Ap     0.252409     5App    0.441624    12Ap     0.445393
       6App    0.456008    13Ap     0.458755    14Ap     0.487385
      15Ap     0.548498     7App    0.587972    16Ap     0.592835
      17Ap     0.602652     8App    0.624508    18Ap     0.641620
      19Ap     0.645632     9App    0.657646    20Ap     0.766461
      10App    0.822703    11App    0.868802    21Ap     0.948022
      22Ap     0.990095    12App    1.032210    13App    1.079934
      23Ap     1.085874    24Ap     1.104321    25Ap     1.183363
      14App    1.228163    26Ap     1.266614    15App    1.330693
      27Ap     1.350854    28Ap     1.373746    29Ap     1.425887
      16App    1.452458    17App    1.515253    30Ap     1.535079
      31Ap     1.616665    32Ap     1.771512    33Ap     1.812056
      18App    1.955619    19App    2.065158    34Ap     2.104534
      35Ap     2.720602    36Ap     2.822508    20App    2.831061
      21App    2.876890    22App    2.931628    37Ap     2.990254
      38Ap     3.023605    23App    3.092572    39Ap     3.119565
      24App    3.175767    40Ap     3.210083    25App    3.217835
      26App    3.338216    41Ap     3.370227    42Ap     3.408470
      27App    3.518635    43Ap     3.537562    28App    3.597518
      44Ap     3.603934    45Ap     3.727019    29App    3.801023
      46Ap     3.982371    47Ap     4.033906    48Ap     4.097154
      49Ap     4.137697    30App    4.202175    31App    4.208538
      50Ap     4.213922    51Ap     4.298456    32App    4.372093
      33App    4.496689    52Ap     4.508692    53Ap     4.531393
      34App    4.871904    54Ap     4.928308    35App    5.161658
      55Ap     5.178232    56Ap     5.285184    36App    5.328375

    Final Occupation by Irrep:
             Ap   App
    DOCC [     6,    2 ]
    SOCC [     1,    0 ]

  @DF-UKS Final Energy:   -79.16613087315217

   => Energetics <=

    Nuclear Repulsion Energy =             36.8967634656480996
    One-Electron Energy =                -178.0059406237565724
    Two-Electron Energy =                  72.2241770917854637
    DFT Exchange-Correlation Energy =     -10.2811308068291485
    Empirical Dispersion Energy =           0.0000000000000000
    VV10 Nonlocal Energy =                  0.0000000000000000
    Total Energy =                        -79.1661308731521700

  UHF NO Occupations:
  HONO-2 :    2App 1.9997325
  HONO-1 :    6 Ap 1.9987093
  HONO-0 :    7 Ap 1.0000000
  LUNO+0 :    8 Ap 0.0012907
  LUNO+1 :    3App 0.0002675
  LUNO+2 :    9 Ap 0.0002471
  LUNO+3 :   10 Ap 0.0002219

Computation Completed

Properties will be evaluated at   0.000000,   0.000000,   0.000000 [a0]

Properties computed using the SCF density matrix

  Nuclear Dipole Moment: [e a0]
     X:     0.1464      Y:    -0.6544      Z:     0.0000

  Electronic Dipole Moment: [e a0]
     X:    -0.1038      Y:     0.5702      Z:     0.0000

  Dipole Moment: [e a0]
     X:     0.0426      Y:    -0.0842      Z:     0.0000     Total:     0.0943

  Dipole Moment: [D]
     X:     0.1082      Y:    -0.2139      Z:     0.0000     Total:     0.2398

*** tstop() called on n044 at Fri Nov  5 19:22:10 2021
Module time:
	user time   =      65.67 seconds =       1.09 minutes
	system time =       0.49 seconds =       0.01 minutes
	total time  =         67 seconds =       1.12 minutes
Total time:
	user time   =      65.67 seconds =       1.09 minutes
	system time =       0.49 seconds =       0.01 minutes
	total time  =         67 seconds =       1.12 minutes
Grab this energy -79.16613087315217
    Psi4 stopped on: Friday, 05 November 2021 07:22PM
    Psi4 wall time for execution: 0:01:06.19

*** Psi4 exiting successfully. Buy a developer a beer!
