                               Psi4 1.4a2.dev629

  ==> Input File <==

--------------------------------------------------------------------------
import os
memory 14 GB

molecule {
 C   -0.0054147611   -1.3572345584   -0.0017041783
 C   -0.0192964036    1.4659088144   -0.0001291426
 H    1.9283342172   -2.1108652313   -0.0046304386
 H   -0.9485058332   -2.1156198753    1.6754131127
 H   -0.9404063953   -2.1149170950   -1.6693747482
 H    0.1284623433    2.5101294967   -1.7492781863
 H    0.1278794092    2.5109081812    1.7497035812
units bohr
0 2
}

basis {

assign 6-31g_2dfp_

[ 6-31g_2dfp_ ]

spherical

!----------------------------------------------------------------------
! Basis Set Exchange
! Version v0.8.13
! https://www.basissetexchange.org
!----------------------------------------------------------------------
!   Basis set: 6-31G(2df,p)
! Description: 6-31G(2df,p)
!        Role: orbital
!     Version: 0  (Data from the original Basis Set Exchange)
!----------------------------------------------------------------------

****
H     0
S    3   1.00
     18.7311370              0.03349460
      2.8253937              0.23472695
      0.6401217              0.81375733
S    1   1.00
      0.1612778              1.00000000
P    1   1.00
      1.5000000              1.0000000
P    1   1.00
      0.3750000              1.0000000
****
B     0
S    6   1.00
   2068.8823000              0.0018663
    310.6495700              0.0142515
     70.6830330              0.0695516
     19.8610800              0.2325729
      6.2993048              0.4670787
      2.1270270              0.3634314
SP   3   1.00
      4.7279710             -0.1303938              0.0745976
      1.1903377             -0.1307889              0.3078467
      0.3594117              1.1309444              0.7434568
SP   1   1.00
      0.1267512              1.0000000              1.0000000
D    1   1.00
      0.8020000              1.0000000
D    1   1.00
      0.2005000              1.0000000
F    1   1.00
      0.5000000              1.0000000
****
C     0
S    6   1.00
   3047.5249000              0.0018347
    457.3695100              0.0140373
    103.9486900              0.0688426
     29.2101550              0.2321844
      9.2866630              0.4679413
      3.1639270              0.3623120
SP   3   1.00
      7.8682724             -0.1193324              0.0689991
      1.8812885             -0.1608542              0.3164240
      0.5442493              1.1434564              0.7443083
SP   1   1.00
      0.1687144              1.0000000              1.0000000
D    1   1.00
      1.2520000              1.0000000
D    1   1.00
      0.3130000              1.0000000
F    1   1.00
      0.8000000              1.0000000
****
N     0
S    6   1.00
   4173.5110000              0.0018348
    627.4579000              0.0139950
    142.9021000              0.0685870
     40.2343300              0.2322410
     12.8202100              0.4690700
      4.3904370              0.3604550
SP   3   1.00
     11.6263580             -0.1149610              0.0675800
      2.7162800             -0.1691180              0.3239070
      0.7722180              1.1458520              0.7408950
SP   1   1.00
      0.2120313              1.0000000              1.0000000
D    1   1.00
      1.8260000              1.0000000
D    1   1.00
      0.4565000              1.0000000
F    1   1.00
      1.0000000              1.0000000
****
O     0
S    6   1.00
   5484.6717000              0.0018311
    825.2349500              0.0139501
    188.0469600              0.0684451
     52.9645000              0.2327143
     16.8975700              0.4701930
      5.7996353              0.3585209
SP   3   1.00
     15.5396160             -0.1107775              0.0708743
      3.5999336             -0.1480263              0.3397528
      1.0137618              1.1307670              0.7271586
SP   1   1.00
      0.2700058              1.0000000              1.0000000
D    1   1.00
      2.5840000              1.0000000
D    1   1.00
      0.6460000              1.0000000
F    1   1.00
      1.4000000              1.0000000
****
F     0
S    6   1.00
   7001.7130900              0.0018196169
   1051.3660900              0.0139160796
    239.2856900              0.0684053245
     67.3974453              0.233185760
     21.5199573              0.471267439
      7.40310130             0.356618546
SP   3   1.00
     20.8479528             -0.108506975            0.0716287243
      4.80830834            -0.146451658            0.3459121030
      1.34406986             1.128688580            0.7224699570
SP   1   1.00
      0.358151393            1.0000000              1.0000000
D    1   1.00
      3.5000000              1.0000000
D    1   1.00
      0.8750000              1.0000000
F    1   1.00
      1.8500000              1.0000000
****
Al     0
S    6   1.00
  13983.1000000              0.00194267
   2098.7500000              0.0148599
    477.7050000              0.0728494
    134.3600000              0.2468300
     42.8709000              0.4872580
     14.5189000              0.3234960
SP   6   1.00
    239.6680000             -0.00292619             0.00460285
     57.4419000             -0.0374080              0.0331990
     18.2859000             -0.1144870              0.1362820
      6.5991400              0.1156350              0.3304760
      2.4904900              0.6125950              0.4491460
      0.9445400              0.3937990              0.2657040
SP   3   1.00
      1.2779000             -0.2276060             -0.0175130
      0.3975900              0.00144583             0.2445330
      0.1600950              1.0927900              0.8049340
SP   1   1.00
      0.0556577              1.0000000              1.0000000
D    1   1.00
      0.6500000              1.0000000
D    1   1.00
      0.1625000              1.0000000
F    1   1.00
      0.2500000              1.0000000
****
Si     0
S    6   1.00
  16115.9000000              0.00195948
   2425.5800000              0.01492880
    553.8670000              0.07284780
    156.3400000              0.24613000
     50.0683000              0.48591400
     17.0178000              0.32500200
SP   6   1.00
    292.7180000             -0.00278094             0.00443826
     69.8731000             -0.03571460             0.03266790
     22.3363000             -0.11498500             0.13472100
      8.1503900              0.09356340             0.32867800
      3.1345800              0.60301700             0.44964000
      1.2254300              0.41895900             0.26137200
SP   3   1.00
      1.7273800             -0.24463000            -0.01779510
      0.5729220              0.00431572             0.25353900
      0.2221920              1.09818000             0.80066900
SP   1   1.00
      0.0778369              1.00000000             1.00000000
D    1   1.00
      0.9000000              1.0000000
D    1   1.00
      0.2250000              1.0000000
F    1   1.00
      0.3200000              1.0000000
****
P     0
S    6   1.00
  19413.3000000              0.0018516
   2909.4200000              0.0142062
    661.3640000              0.0699995
    185.7590000              0.2400790
     59.1943000              0.4847620
     20.0310000              0.3352000
SP   6   1.00
    339.4780000             -0.00278217             0.00456462
     81.0101000             -0.0360499              0.03369360
     25.8780000             -0.1166310              0.13975500
      9.4522100              0.0968328              0.33936200
      3.6656600              0.6144180              0.45092100
      1.4674600              0.4037980              0.23858600
SP   3   1.00
      2.1562300             -0.2529230             -0.01776530
      0.7489970              0.0328517              0.27405800
      0.2831450              1.0812500              0.78542100
SP   1   1.00
      0.0998317              1.0000000              1.00000000
D    1   1.00
      1.1000000              1.0000000
D    1   1.00
      0.2750000              1.0000000
F    1   1.00
      0.4500000              1.0000000
****
S     0
S    6   1.00
  21917.1000000              0.0018690
   3301.4900000              0.0142300
    754.1460000              0.0696960
    212.7110000              0.2384870
     67.9896000              0.4833070
     23.0515000              0.3380740
SP   6   1.00
    423.7350000             -0.0023767              0.0040610
    100.7100000             -0.0316930              0.0306810
     32.1599000             -0.1133170              0.1304520
     11.8079000              0.0560900              0.3272050
      4.6311000              0.5922550              0.4528510
      1.8702500              0.4550060              0.2560420
SP   3   1.00
      2.6158400             -0.2503740             -0.0145110
      0.9221670              0.0669570              0.3102630
      0.3412870              1.0545100              0.7544830
SP   1   1.00
      0.1171670              1.0000000              1.0000000
D    1   1.00
      1.3000000              1.0000000
D    1   1.00
      0.3250000              1.0000000
F    1   1.00
      0.5500000              1.0000000
****
Cl     0
S    6   1.00
  25180.1000000              0.0018330
   3780.3500000              0.0140340
    860.4740000              0.0690970
    242.1450000              0.2374520
     77.3349000              0.4830340
     26.2470000              0.3398560
SP   6   1.00
    491.7650000             -0.0022974              0.0039894
    116.9840000             -0.0307140              0.0303180
     37.4153000             -0.1125280              0.1298800
     13.7834000              0.0450160              0.3279510
      5.4521500              0.5893530              0.4535270
      2.2258800              0.4652060              0.2521540
SP   3   1.00
      3.1864900             -0.2518300             -0.0142990
      1.1442700              0.0615890              0.3235720
      0.4203770              1.0601800              0.7435070
SP   1   1.00
      0.1426570              1.0000000              1.0000000
D    1   1.00
      1.5000000              1.0000000
D    1   1.00
      0.3750000              1.0000000
F    1   1.00
      0.7000000              1.0000000
****
}

set {
reference uhf
freeze_core true
e_convergence 10
d_convergence 10
dft_spherical_points 1202
dft_radial_points 99
}

e = energy('b3lyp')

print_out('Grab this energy {0}'.format(e))
--------------------------------------------------------------------------

    Molecular point group: c1

    Geometry (in Bohr), charge = 0, multiplicity = 2:

       Center              X                  Y                   Z               Mass
    ------------   -----------------  -----------------  -----------------  -----------------
         C           -0.005467935071    -1.356318368725    -0.001010211657    12.000000000000
         C           -0.019349577571     1.466825004075     0.000564824043    12.000000000000
         H            1.928281043229    -2.109949041625    -0.003936471957     1.007825032230
         H           -0.948559007171    -2.114703685625     1.676107079343     1.007825032230
         H           -0.940459569271    -2.114000905325    -1.668680781557     1.007825032230
         H            0.128409169329     2.511045686375    -1.748584219657     1.007825032230
         H            0.127826235229     2.511824370875     1.750397547843     1.007825032230

  Charge       = 0
  Multiplicity = 2
  Basis Set: ANONYMOUSB75E2877
    Blend: 6-31G_2DFP_
  Basis Set: (ANONYMOUSB75E2877 AUX)
    Blend: DEF2-UNIVERSAL-JKFIT

    Orbital Energies [Eh]
    ---------------------

    Alpha Occupied:

       1A    -10.179529     2A    -10.174132     3A     -0.751293
       4A     -0.605056     5A     -0.446249     6A     -0.410671
       7A     -0.384753     8A     -0.354522     9A     -0.197397

    Alpha Virtual:

      10A      0.099062    11A      0.128016    12A      0.141252
      13A      0.165850    14A      0.203252    15A      0.246618
      16A      0.430173    17A      0.440469    18A      0.446568
      19A      0.450139    20A      0.478534    21A      0.520982
      22A      0.544094    23A      0.574273    24A      0.593844
      25A      0.619015    26A      0.634035    27A      0.639805
      28A      0.650273    29A      0.741303    30A      0.822494
      31A      0.865789    32A      0.931218    33A      0.977258
      34A      1.025172    35A      1.071612    36A      1.083385
      37A      1.085406    38A      1.179746    39A      1.220875
      40A      1.253331    41A      1.323598    42A      1.344203
      43A      1.366898    44A      1.421019    45A      1.446401
      46A      1.509916    47A      1.523831    48A      1.603162
      49A      1.764938    50A      1.807238    51A      1.951491
      52A      2.049513    53A      2.102792    54A      2.698278
      55A      2.800773    56A      2.829003    57A      2.860478
      58A      2.928976    59A      2.962840    60A      2.986935
      61A      3.080492    62A      3.093271    63A      3.158878
      64A      3.170331    65A      3.199247    66A      3.300411
      67A      3.357755    68A      3.390074    69A      3.494400
      70A      3.498872    71A      3.580317    72A      3.596408
      73A      3.710984    74A      3.806973    75A      3.973620
      76A      4.023000    77A      4.087479    78A      4.128836
      79A      4.189306    80A      4.197049    81A      4.204518
      82A      4.293056    83A      4.372374    84A      4.489850
      85A      4.500469    86A      4.527289    87A      4.865221
      88A      4.927068    89A      5.146454    90A      5.169122
      91A      5.278733    92A      5.329489

    Beta Occupied:

       1A    -10.174947     2A    -10.165580     3A     -0.734675
       4A     -0.580392     5A     -0.440115     6A     -0.396104
       7A     -0.376817     8A     -0.350060

    Beta Virtual:

       9A     -0.035992    10A      0.101718    11A      0.139186
      12A      0.142871    13A      0.170634    14A      0.206849
      15A      0.252389    16A      0.441518    17A      0.445178
      18A      0.455814    19A      0.459265    20A      0.487254
      21A      0.549119    22A      0.587779    23A      0.592692
      24A      0.602665    25A      0.624286    26A      0.641912
      27A      0.645541    28A      0.657698    29A      0.766707
      30A      0.822274    31A      0.868794    32A      0.948867
      33A      0.988461    34A      1.033778    35A      1.079599
      36A      1.088273    37A      1.102571    38A      1.183312
      39A      1.228669    40A      1.265693    41A      1.330086
      42A      1.351679    43A      1.373205    44A      1.426930
      45A      1.453873    46A      1.514509    47A      1.535055
      48A      1.614358    49A      1.771484    50A      1.813360
      51A      1.955925    52A      2.059428    53A      2.108270
      54A      2.721537    55A      2.822591    56A      2.830967
      57A      2.876522    58A      2.931491    59A      2.989567
      60A      3.023764    61A      3.093856    62A      3.120593
      63A      3.176461    64A      3.210431    65A      3.218373
      66A      3.339197    67A      3.370625    68A      3.408515
      69A      3.518929    70A      3.537426    71A      3.596885
      72A      3.606533    73A      3.729178    74A      3.807258
      75A      3.983867    76A      4.032715    77A      4.093848
      78A      4.138283    79A      4.201651    80A      4.203904
      81A      4.213655    82A      4.301044    83A      4.376584
      84A      4.496828    85A      4.511016    86A      4.534499
      87A      4.866560    88A      4.931337    89A      5.149764
      90A      5.180015    91A      5.285766    92A      5.332045

    Final Occupation by Irrep:
              A
    DOCC [     8 ]
    SOCC [     1 ]

  @DF-UKS Final Energy:   -79.16613128414450

   => Energetics <=

    Nuclear Repulsion Energy =             36.9194702259678991
    One-Electron Energy =                -178.0521743443092362
    Two-Electron Energy =                  72.2478976787288332
    DFT Exchange-Correlation Energy =     -10.2813248445319942
    Empirical Dispersion Energy =           0.0000000000000000
    VV10 Nonlocal Energy =                  0.0000000000000000
    Total Energy =                        -79.1661312841444982

  UHF NO Occupations:
  HONO-2 :    7  A 1.9997316
  HONO-1 :    8  A 1.9987066
  HONO-0 :    9  A 1.0000000
  LUNO+0 :   10  A 0.0012934
  LUNO+1 :   11  A 0.0002684
  LUNO+2 :   12  A 0.0002478
  LUNO+3 :   13  A 0.0002222

Computation Completed

Properties will be evaluated at   0.000000,   0.000000,   0.000000 [a0]

Properties computed using the SCF density matrix

  Nuclear Dipole Moment: [e a0]
     X:     0.1466      Y:    -0.6527      Z:     0.0026

  Electronic Dipole Moment: [e a0]
     X:    -0.1040      Y:     0.5677      Z:    -0.0041

  Dipole Moment: [e a0]
     X:     0.0426      Y:    -0.0850      Z:    -0.0015     Total:     0.0951

  Dipole Moment: [D]
     X:     0.1082      Y:    -0.2162      Z:    -0.0038     Total:     0.2418

*** tstop() called on n045 at Fri Nov  5 17:51:05 2021
Module time:
	user time   =      61.23 seconds =       1.02 minutes
	system time =       0.44 seconds =       0.01 minutes
	total time  =         61 seconds =       1.02 minutes
Total time:
	user time   =      61.23 seconds =       1.02 minutes
	system time =       0.44 seconds =       0.01 minutes
	total time  =         61 seconds =       1.02 minutes
Grab this energy -79.1661312841445
    Psi4 stopped on: Friday, 05 November 2021 05:51PM
    Psi4 wall time for execution: 0:01:01.72

*** Psi4 exiting successfully. Buy a developer a beer!
