                               Psi4 1.4a2.dev629

  ==> Input File <==

--------------------------------------------------------------------------
import os
memory 14 GB

molecule {
 C   -0.0055030633   -1.3546193711    0.0011507583
 C   -0.0194572799    1.4605285814    0.0045863794
 H    1.9283396674   -2.1111294501   -0.0008132450
 H   -0.9449534558   -2.1149109833    1.6718149192
 H   -0.9439587727   -2.1161065287   -1.6729488559
 H    0.1281255366    2.5129123629   -1.7517545553
 H    0.1284599441    2.5116351210    1.7479645993
units bohr
0 2
}

basis {

assign 6-31g_2dfp_

[ 6-31g_2dfp_ ]

spherical

!----------------------------------------------------------------------
! Basis Set Exchange
! Version v0.8.13
! https://www.basissetexchange.org
!----------------------------------------------------------------------
!   Basis set: 6-31G(2df,p)
! Description: 6-31G(2df,p)
!        Role: orbital
!     Version: 0  (Data from the original Basis Set Exchange)
!----------------------------------------------------------------------

****
H     0
S    3   1.00
     18.7311370              0.03349460
      2.8253937              0.23472695
      0.6401217              0.81375733
S    1   1.00
      0.1612778              1.00000000
P    1   1.00
      1.5000000              1.0000000
P    1   1.00
      0.3750000              1.0000000
****
B     0
S    6   1.00
   2068.8823000              0.0018663
    310.6495700              0.0142515
     70.6830330              0.0695516
     19.8610800              0.2325729
      6.2993048              0.4670787
      2.1270270              0.3634314
SP   3   1.00
      4.7279710             -0.1303938              0.0745976
      1.1903377             -0.1307889              0.3078467
      0.3594117              1.1309444              0.7434568
SP   1   1.00
      0.1267512              1.0000000              1.0000000
D    1   1.00
      0.8020000              1.0000000
D    1   1.00
      0.2005000              1.0000000
F    1   1.00
      0.5000000              1.0000000
****
C     0
S    6   1.00
   3047.5249000              0.0018347
    457.3695100              0.0140373
    103.9486900              0.0688426
     29.2101550              0.2321844
      9.2866630              0.4679413
      3.1639270              0.3623120
SP   3   1.00
      7.8682724             -0.1193324              0.0689991
      1.8812885             -0.1608542              0.3164240
      0.5442493              1.1434564              0.7443083
SP   1   1.00
      0.1687144              1.0000000              1.0000000
D    1   1.00
      1.2520000              1.0000000
D    1   1.00
      0.3130000              1.0000000
F    1   1.00
      0.8000000              1.0000000
****
N     0
S    6   1.00
   4173.5110000              0.0018348
    627.4579000              0.0139950
    142.9021000              0.0685870
     40.2343300              0.2322410
     12.8202100              0.4690700
      4.3904370              0.3604550
SP   3   1.00
     11.6263580             -0.1149610              0.0675800
      2.7162800             -0.1691180              0.3239070
      0.7722180              1.1458520              0.7408950
SP   1   1.00
      0.2120313              1.0000000              1.0000000
D    1   1.00
      1.8260000              1.0000000
D    1   1.00
      0.4565000              1.0000000
F    1   1.00
      1.0000000              1.0000000
****
O     0
S    6   1.00
   5484.6717000              0.0018311
    825.2349500              0.0139501
    188.0469600              0.0684451
     52.9645000              0.2327143
     16.8975700              0.4701930
      5.7996353              0.3585209
SP   3   1.00
     15.5396160             -0.1107775              0.0708743
      3.5999336             -0.1480263              0.3397528
      1.0137618              1.1307670              0.7271586
SP   1   1.00
      0.2700058              1.0000000              1.0000000
D    1   1.00
      2.5840000              1.0000000
D    1   1.00
      0.6460000              1.0000000
F    1   1.00
      1.4000000              1.0000000
****
F     0
S    6   1.00
   7001.7130900              0.0018196169
   1051.3660900              0.0139160796
    239.2856900              0.0684053245
     67.3974453              0.233185760
     21.5199573              0.471267439
      7.40310130             0.356618546
SP   3   1.00
     20.8479528             -0.108506975            0.0716287243
      4.80830834            -0.146451658            0.3459121030
      1.34406986             1.128688580            0.7224699570
SP   1   1.00
      0.358151393            1.0000000              1.0000000
D    1   1.00
      3.5000000              1.0000000
D    1   1.00
      0.8750000              1.0000000
F    1   1.00
      1.8500000              1.0000000
****
Al     0
S    6   1.00
  13983.1000000              0.00194267
   2098.7500000              0.0148599
    477.7050000              0.0728494
    134.3600000              0.2468300
     42.8709000              0.4872580
     14.5189000              0.3234960
SP   6   1.00
    239.6680000             -0.00292619             0.00460285
     57.4419000             -0.0374080              0.0331990
     18.2859000             -0.1144870              0.1362820
      6.5991400              0.1156350              0.3304760
      2.4904900              0.6125950              0.4491460
      0.9445400              0.3937990              0.2657040
SP   3   1.00
      1.2779000             -0.2276060             -0.0175130
      0.3975900              0.00144583             0.2445330
      0.1600950              1.0927900              0.8049340
SP   1   1.00
      0.0556577              1.0000000              1.0000000
D    1   1.00
      0.6500000              1.0000000
D    1   1.00
      0.1625000              1.0000000
F    1   1.00
      0.2500000              1.0000000
****
Si     0
S    6   1.00
  16115.9000000              0.00195948
   2425.5800000              0.01492880
    553.8670000              0.07284780
    156.3400000              0.24613000
     50.0683000              0.48591400
     17.0178000              0.32500200
SP   6   1.00
    292.7180000             -0.00278094             0.00443826
     69.8731000             -0.03571460             0.03266790
     22.3363000             -0.11498500             0.13472100
      8.1503900              0.09356340             0.32867800
      3.1345800              0.60301700             0.44964000
      1.2254300              0.41895900             0.26137200
SP   3   1.00
      1.7273800             -0.24463000            -0.01779510
      0.5729220              0.00431572             0.25353900
      0.2221920              1.09818000             0.80066900
SP   1   1.00
      0.0778369              1.00000000             1.00000000
D    1   1.00
      0.9000000              1.0000000
D    1   1.00
      0.2250000              1.0000000
F    1   1.00
      0.3200000              1.0000000
****
P     0
S    6   1.00
  19413.3000000              0.0018516
   2909.4200000              0.0142062
    661.3640000              0.0699995
    185.7590000              0.2400790
     59.1943000              0.4847620
     20.0310000              0.3352000
SP   6   1.00
    339.4780000             -0.00278217             0.00456462
     81.0101000             -0.0360499              0.03369360
     25.8780000             -0.1166310              0.13975500
      9.4522100              0.0968328              0.33936200
      3.6656600              0.6144180              0.45092100
      1.4674600              0.4037980              0.23858600
SP   3   1.00
      2.1562300             -0.2529230             -0.01776530
      0.7489970              0.0328517              0.27405800
      0.2831450              1.0812500              0.78542100
SP   1   1.00
      0.0998317              1.0000000              1.00000000
D    1   1.00
      1.1000000              1.0000000
D    1   1.00
      0.2750000              1.0000000
F    1   1.00
      0.4500000              1.0000000
****
S     0
S    6   1.00
  21917.1000000              0.0018690
   3301.4900000              0.0142300
    754.1460000              0.0696960
    212.7110000              0.2384870
     67.9896000              0.4833070
     23.0515000              0.3380740
SP   6   1.00
    423.7350000             -0.0023767              0.0040610
    100.7100000             -0.0316930              0.0306810
     32.1599000             -0.1133170              0.1304520
     11.8079000              0.0560900              0.3272050
      4.6311000              0.5922550              0.4528510
      1.8702500              0.4550060              0.2560420
SP   3   1.00
      2.6158400             -0.2503740             -0.0145110
      0.9221670              0.0669570              0.3102630
      0.3412870              1.0545100              0.7544830
SP   1   1.00
      0.1171670              1.0000000              1.0000000
D    1   1.00
      1.3000000              1.0000000
D    1   1.00
      0.3250000              1.0000000
F    1   1.00
      0.5500000              1.0000000
****
Cl     0
S    6   1.00
  25180.1000000              0.0018330
   3780.3500000              0.0140340
    860.4740000              0.0690970
    242.1450000              0.2374520
     77.3349000              0.4830340
     26.2470000              0.3398560
SP   6   1.00
    491.7650000             -0.0022974              0.0039894
    116.9840000             -0.0307140              0.0303180
     37.4153000             -0.1125280              0.1298800
     13.7834000              0.0450160              0.3279510
      5.4521500              0.5893530              0.4535270
      2.2258800              0.4652060              0.2521540
SP   3   1.00
      3.1864900             -0.2518300             -0.0142990
      1.1442700              0.0615890              0.3235720
      0.4203770              1.0601800              0.7435070
SP   1   1.00
      0.1426570              1.0000000              1.0000000
D    1   1.00
      1.5000000              1.0000000
D    1   1.00
      0.3750000              1.0000000
F    1   1.00
      0.7000000              1.0000000
****
}

set {
reference uhf
freeze_core true
e_convergence 10
d_convergence 10
dft_spherical_points 1202
dft_radial_points 99
}

e = energy('b3lyp')

print_out('Grab this energy {0}'.format(e))
--------------------------------------------------------------------------

    Molecular point group: c1

    Geometry (in Bohr), charge = 0, multiplicity = 2:

       Center              X                  Y                   Z               Mass
    ------------   -----------------  -----------------  -----------------  -----------------
         C           -0.005461915774    -1.352656529153    -0.001020919430    12.000000000000
         C           -0.019416132374     1.462491423347     0.002414701670    12.000000000000
         H            1.928380814926    -2.109166608153    -0.002984922730     1.007825032230
         H           -0.944912308274    -2.112948141353     1.669643241470     1.007825032230
         H           -0.943917625174    -2.114143686753    -1.675120533630     1.007825032230
         H            0.128166684126     2.514875204847    -1.753926233030     1.007825032230
         H            0.128501091626     2.513597962947     1.745792921570     1.007825032230

  Charge       = 0
  Multiplicity = 2
  Basis Set: ANONYMOUSADD5B9D4
    Blend: 6-31G_2DFP_
  Basis Set: (ANONYMOUSADD5B9D4 AUX)
    Blend: DEF2-UNIVERSAL-JKFIT

    Orbital Energies [Eh]
    ---------------------

    Alpha Occupied:

       1A    -10.179616     2A    -10.174163     3A     -0.751940
       4A     -0.604603     5A     -0.446013     6A     -0.410876
       7A     -0.385793     8A     -0.353752     9A     -0.197162

    Alpha Virtual:

      10A      0.099002    11A      0.127732    12A      0.140599
      13A      0.165647    14A      0.203202    15A      0.247987
      16A      0.430571    17A      0.440847    18A      0.445653
      19A      0.449752    20A      0.478833    21A      0.521086
      22A      0.543603    23A      0.574353    24A      0.594739
      25A      0.618431    26A      0.633947    27A      0.639688
      28A      0.649544    29A      0.741133    30A      0.822671
      31A      0.865732    32A      0.931440    33A      0.977430
      34A      1.024239    35A      1.071886    36A      1.082914
      37A      1.086137    38A      1.179669    39A      1.219219
      40A      1.253925    41A      1.323711    42A      1.346086
      43A      1.367731    44A      1.420628    45A      1.446008
      46A      1.508907    47A      1.526160    48A      1.602178
      49A      1.763044    50A      1.806712    51A      1.952074
      52A      2.050182    53A      2.101074    54A      2.698817
      55A      2.802570    56A      2.828785    57A      2.860648
      58A      2.928486    59A      2.962358    60A      2.985962
      61A      3.079913    62A      3.093983    63A      3.157030
      64A      3.171618    65A      3.199161    66A      3.300641
      67A      3.358094    68A      3.390375    69A      3.493514
      70A      3.499827    71A      3.582379    72A      3.595383
      73A      3.712894    74A      3.806768    75A      3.975210
      76A      4.025008    77A      4.089063    78A      4.128123
      79A      4.187946    80A      4.197605    81A      4.205019
      82A      4.292873    83A      4.369575    84A      4.490702
      85A      4.502892    86A      4.529763    87A      4.861915
      88A      4.925411    89A      5.143283    90A      5.165774
      91A      5.279000    92A      5.328913

    Beta Occupied:

       1A    -10.174985     2A    -10.165674     3A     -0.735313
       4A     -0.579952     5A     -0.439912     6A     -0.396126
       7A     -0.377869     8A     -0.349257

    Beta Virtual:

       9A     -0.035985    10A      0.101682    11A      0.138877
      12A      0.142270    13A      0.170502    14A      0.206814
      15A      0.253709    16A      0.441863    17A      0.444882
      18A      0.455425    19A      0.458933    20A      0.487791
      21A      0.549350    22A      0.587784    23A      0.592134
      24A      0.603406    25A      0.623723    26A      0.641822
      27A      0.645357    28A      0.656993    29A      0.766534
      30A      0.822459    31A      0.868786    32A      0.949054
      33A      0.988687    34A      1.032927    35A      1.079817
      36A      1.087492    37A      1.103634    38A      1.183293
      39A      1.226952    40A      1.266347    41A      1.330244
      42A      1.353619    43A      1.374080    44A      1.426634
      45A      1.453472    46A      1.513509    47A      1.537568
      48A      1.613045    49A      1.769645    50A      1.812890
      51A      1.956527    52A      2.060139    53A      2.106623
      54A      2.722059    55A      2.824416    56A      2.830664
      57A      2.876620    58A      2.931046    59A      2.989413
      60A      3.022577    61A      3.093447    62A      3.121262
      63A      3.174744    64A      3.211660    65A      3.218323
      66A      3.339057    67A      3.370504    68A      3.408904
      69A      3.519588    70A      3.536666    71A      3.599376
      72A      3.605495    73A      3.731111    74A      3.807090
      75A      3.985530    76A      4.034326    77A      4.095558
      78A      4.137616    79A      4.202134    80A      4.202510
      81A      4.214438    82A      4.300826    83A      4.373866
      84A      4.497682    85A      4.513705    86A      4.536939
      87A      4.863267    88A      4.929733    89A      5.147030
      90A      5.176252    91A      5.286146    92A      5.331463

    Final Occupation by Irrep:
              A
    DOCC [     8 ]
    SOCC [     1 ]

  @DF-UKS Final Energy:   -79.16616659173815

   => Energetics <=

    Nuclear Repulsion Energy =             36.9446926329852090
    One-Electron Energy =                -178.1022523211417479
    Two-Electron Energy =                  72.2723532099718824
    DFT Exchange-Correlation Energy =     -10.2809601135534923
    Empirical Dispersion Energy =           0.0000000000000000
    VV10 Nonlocal Energy =                  0.0000000000000000
    Total Energy =                        -79.1661665917381470

  UHF NO Occupations:
  HONO-2 :    7  A 1.9997292
  HONO-1 :    8  A 1.9987083
  HONO-0 :    9  A 1.0000000
  LUNO+0 :   10  A 0.0012917
  LUNO+1 :   11  A 0.0002708
  LUNO+2 :   12  A 0.0002522
  LUNO+3 :   13  A 0.0002213

Computation Completed

Properties will be evaluated at   0.000000,   0.000000,   0.000000 [a0]

Properties computed using the SCF density matrix

  Nuclear Dipole Moment: [e a0]
     X:     0.1470      Y:    -0.6488      Z:    -0.0082

  Electronic Dipole Moment: [e a0]
     X:    -0.1045      Y:     0.5628      Z:     0.0093

  Dipole Moment: [e a0]
     X:     0.0424      Y:    -0.0860      Z:     0.0011     Total:     0.0959

  Dipole Moment: [D]
     X:     0.1078      Y:    -0.2185      Z:     0.0028     Total:     0.2436

*** tstop() called on n044 at Fri Nov  5 18:43:05 2021
Module time:
	user time   =      61.54 seconds =       1.03 minutes
	system time =       0.46 seconds =       0.01 minutes
	total time  =         62 seconds =       1.03 minutes
Total time:
	user time   =      61.54 seconds =       1.03 minutes
	system time =       0.46 seconds =       0.01 minutes
	total time  =         62 seconds =       1.03 minutes
Grab this energy -79.16616659173815
    Psi4 stopped on: Friday, 05 November 2021 06:43PM
    Psi4 wall time for execution: 0:01:02.04

*** Psi4 exiting successfully. Buy a developer a beer!
