                               Psi4 1.4a2.dev629

  ==> Input File <==

--------------------------------------------------------------------------
import os
memory 14 GB

molecule {
 C   -0.0054536078   -1.3541930991    0.0002020739
 C   -0.0192834007    1.4704717580    0.0037491633
 H    1.9279606807   -2.1122425289   -0.0011283574
 H   -0.9434713585   -2.1220093711    1.6703932148
 H   -0.9449300791   -2.1113796474   -1.6737706251
 H    0.1285233535    2.4991376618   -1.7488069396
 H    0.1277069883    2.5185249589    1.7493614700
units bohr
0 2
}

basis {

assign 6-31g_2dfp_

[ 6-31g_2dfp_ ]

spherical

!----------------------------------------------------------------------
! Basis Set Exchange
! Version v0.8.13
! https://www.basissetexchange.org
!----------------------------------------------------------------------
!   Basis set: 6-31G(2df,p)
! Description: 6-31G(2df,p)
!        Role: orbital
!     Version: 0  (Data from the original Basis Set Exchange)
!----------------------------------------------------------------------

****
H     0
S    3   1.00
     18.7311370              0.03349460
      2.8253937              0.23472695
      0.6401217              0.81375733
S    1   1.00
      0.1612778              1.00000000
P    1   1.00
      1.5000000              1.0000000
P    1   1.00
      0.3750000              1.0000000
****
B     0
S    6   1.00
   2068.8823000              0.0018663
    310.6495700              0.0142515
     70.6830330              0.0695516
     19.8610800              0.2325729
      6.2993048              0.4670787
      2.1270270              0.3634314
SP   3   1.00
      4.7279710             -0.1303938              0.0745976
      1.1903377             -0.1307889              0.3078467
      0.3594117              1.1309444              0.7434568
SP   1   1.00
      0.1267512              1.0000000              1.0000000
D    1   1.00
      0.8020000              1.0000000
D    1   1.00
      0.2005000              1.0000000
F    1   1.00
      0.5000000              1.0000000
****
C     0
S    6   1.00
   3047.5249000              0.0018347
    457.3695100              0.0140373
    103.9486900              0.0688426
     29.2101550              0.2321844
      9.2866630              0.4679413
      3.1639270              0.3623120
SP   3   1.00
      7.8682724             -0.1193324              0.0689991
      1.8812885             -0.1608542              0.3164240
      0.5442493              1.1434564              0.7443083
SP   1   1.00
      0.1687144              1.0000000              1.0000000
D    1   1.00
      1.2520000              1.0000000
D    1   1.00
      0.3130000              1.0000000
F    1   1.00
      0.8000000              1.0000000
****
N     0
S    6   1.00
   4173.5110000              0.0018348
    627.4579000              0.0139950
    142.9021000              0.0685870
     40.2343300              0.2322410
     12.8202100              0.4690700
      4.3904370              0.3604550
SP   3   1.00
     11.6263580             -0.1149610              0.0675800
      2.7162800             -0.1691180              0.3239070
      0.7722180              1.1458520              0.7408950
SP   1   1.00
      0.2120313              1.0000000              1.0000000
D    1   1.00
      1.8260000              1.0000000
D    1   1.00
      0.4565000              1.0000000
F    1   1.00
      1.0000000              1.0000000
****
O     0
S    6   1.00
   5484.6717000              0.0018311
    825.2349500              0.0139501
    188.0469600              0.0684451
     52.9645000              0.2327143
     16.8975700              0.4701930
      5.7996353              0.3585209
SP   3   1.00
     15.5396160             -0.1107775              0.0708743
      3.5999336             -0.1480263              0.3397528
      1.0137618              1.1307670              0.7271586
SP   1   1.00
      0.2700058              1.0000000              1.0000000
D    1   1.00
      2.5840000              1.0000000
D    1   1.00
      0.6460000              1.0000000
F    1   1.00
      1.4000000              1.0000000
****
F     0
S    6   1.00
   7001.7130900              0.0018196169
   1051.3660900              0.0139160796
    239.2856900              0.0684053245
     67.3974453              0.233185760
     21.5199573              0.471267439
      7.40310130             0.356618546
SP   3   1.00
     20.8479528             -0.108506975            0.0716287243
      4.80830834            -0.146451658            0.3459121030
      1.34406986             1.128688580            0.7224699570
SP   1   1.00
      0.358151393            1.0000000              1.0000000
D    1   1.00
      3.5000000              1.0000000
D    1   1.00
      0.8750000              1.0000000
F    1   1.00
      1.8500000              1.0000000
****
Al     0
S    6   1.00
  13983.1000000              0.00194267
   2098.7500000              0.0148599
    477.7050000              0.0728494
    134.3600000              0.2468300
     42.8709000              0.4872580
     14.5189000              0.3234960
SP   6   1.00
    239.6680000             -0.00292619             0.00460285
     57.4419000             -0.0374080              0.0331990
     18.2859000             -0.1144870              0.1362820
      6.5991400              0.1156350              0.3304760
      2.4904900              0.6125950              0.4491460
      0.9445400              0.3937990              0.2657040
SP   3   1.00
      1.2779000             -0.2276060             -0.0175130
      0.3975900              0.00144583             0.2445330
      0.1600950              1.0927900              0.8049340
SP   1   1.00
      0.0556577              1.0000000              1.0000000
D    1   1.00
      0.6500000              1.0000000
D    1   1.00
      0.1625000              1.0000000
F    1   1.00
      0.2500000              1.0000000
****
Si     0
S    6   1.00
  16115.9000000              0.00195948
   2425.5800000              0.01492880
    553.8670000              0.07284780
    156.3400000              0.24613000
     50.0683000              0.48591400
     17.0178000              0.32500200
SP   6   1.00
    292.7180000             -0.00278094             0.00443826
     69.8731000             -0.03571460             0.03266790
     22.3363000             -0.11498500             0.13472100
      8.1503900              0.09356340             0.32867800
      3.1345800              0.60301700             0.44964000
      1.2254300              0.41895900             0.26137200
SP   3   1.00
      1.7273800             -0.24463000            -0.01779510
      0.5729220              0.00431572             0.25353900
      0.2221920              1.09818000             0.80066900
SP   1   1.00
      0.0778369              1.00000000             1.00000000
D    1   1.00
      0.9000000              1.0000000
D    1   1.00
      0.2250000              1.0000000
F    1   1.00
      0.3200000              1.0000000
****
P     0
S    6   1.00
  19413.3000000              0.0018516
   2909.4200000              0.0142062
    661.3640000              0.0699995
    185.7590000              0.2400790
     59.1943000              0.4847620
     20.0310000              0.3352000
SP   6   1.00
    339.4780000             -0.00278217             0.00456462
     81.0101000             -0.0360499              0.03369360
     25.8780000             -0.1166310              0.13975500
      9.4522100              0.0968328              0.33936200
      3.6656600              0.6144180              0.45092100
      1.4674600              0.4037980              0.23858600
SP   3   1.00
      2.1562300             -0.2529230             -0.01776530
      0.7489970              0.0328517              0.27405800
      0.2831450              1.0812500              0.78542100
SP   1   1.00
      0.0998317              1.0000000              1.00000000
D    1   1.00
      1.1000000              1.0000000
D    1   1.00
      0.2750000              1.0000000
F    1   1.00
      0.4500000              1.0000000
****
S     0
S    6   1.00
  21917.1000000              0.0018690
   3301.4900000              0.0142300
    754.1460000              0.0696960
    212.7110000              0.2384870
     67.9896000              0.4833070
     23.0515000              0.3380740
SP   6   1.00
    423.7350000             -0.0023767              0.0040610
    100.7100000             -0.0316930              0.0306810
     32.1599000             -0.1133170              0.1304520
     11.8079000              0.0560900              0.3272050
      4.6311000              0.5922550              0.4528510
      1.8702500              0.4550060              0.2560420
SP   3   1.00
      2.6158400             -0.2503740             -0.0145110
      0.9221670              0.0669570              0.3102630
      0.3412870              1.0545100              0.7544830
SP   1   1.00
      0.1171670              1.0000000              1.0000000
D    1   1.00
      1.3000000              1.0000000
D    1   1.00
      0.3250000              1.0000000
F    1   1.00
      0.5500000              1.0000000
****
Cl     0
S    6   1.00
  25180.1000000              0.0018330
   3780.3500000              0.0140340
    860.4740000              0.0690970
    242.1450000              0.2374520
     77.3349000              0.4830340
     26.2470000              0.3398560
SP   6   1.00
    491.7650000             -0.0022974              0.0039894
    116.9840000             -0.0307140              0.0303180
     37.4153000             -0.1125280              0.1298800
     13.7834000              0.0450160              0.3279510
      5.4521500              0.5893530              0.4535270
      2.2258800              0.4652060              0.2521540
SP   3   1.00
      3.1864900             -0.2518300             -0.0142990
      1.1442700              0.0615890              0.3235720
      0.4203770              1.0601800              0.7435070
SP   1   1.00
      0.1426570              1.0000000              1.0000000
D    1   1.00
      1.5000000              1.0000000
D    1   1.00
      0.3750000              1.0000000
F    1   1.00
      0.7000000              1.0000000
****
}

set {
reference uhf
freeze_core true
e_convergence 10
d_convergence 10
dft_spherical_points 1202
dft_radial_points 99
}

e = energy('b3lyp')

print_out('Grab this energy {0}'.format(e))
--------------------------------------------------------------------------

    Molecular point group: c1

    Geometry (in Bohr), charge = 0, multiplicity = 2:

       Center              X                  Y                   Z               Mass
    ------------   -----------------  -----------------  -----------------  -----------------
         C           -0.005496999119    -1.356155402721    -0.001293587223    12.000000000000
         C           -0.019326792019     1.468509454379     0.002253502177    12.000000000000
         H            1.927917289381    -2.114204832521    -0.002624018523     1.007825032230
         H           -0.943514749819    -2.123971674721     1.668897553677     1.007825032230
         H           -0.944973470419    -2.113341951021    -1.675266286223     1.007825032230
         H            0.128479962181     2.497175358179    -1.750302600723     1.007825032230
         H            0.127663596981     2.516562655279     1.747865808877     1.007825032230

  Charge       = 0
  Multiplicity = 2
  Basis Set: ANONYMOUS4313A721
    Blend: 6-31G_2DFP_
  Basis Set: (ANONYMOUS4313A721 AUX)
    Blend: DEF2-UNIVERSAL-JKFIT

    Orbital Energies [Eh]
    ---------------------

    Alpha Occupied:

       1A    -10.179375     2A    -10.174244     3A     -0.751107
       4A     -0.605369     5A     -0.446499     6A     -0.410206
       7A     -0.384675     8A     -0.354751     9A     -0.197540

    Alpha Virtual:

      10A      0.099078    11A      0.128213    12A      0.141418
      13A      0.165829    14A      0.203357    15A      0.246416
      16A      0.430073    17A      0.440426    18A      0.446905
      19A      0.450220    20A      0.478402    21A      0.520760
      22A      0.544077    23A      0.574141    24A      0.593402
      25A      0.619074    26A      0.634049    27A      0.639818
      28A      0.650821    29A      0.741386    30A      0.822521
      31A      0.866027    32A      0.930887    33A      0.976811
      34A      1.025596    35A      1.070610    36A      1.083236
      37A      1.086847    38A      1.180162    39A      1.221723
      40A      1.253526    41A      1.323272    42A      1.343512
      43A      1.367263    44A      1.419750    45A      1.445582
      46A      1.510828    47A      1.522205    48A      1.604647
      49A      1.765841    50A      1.806734    51A      1.952104
      52A      2.049743    53A      2.105179    54A      2.697821
      55A      2.799733    56A      2.828981    57A      2.860338
      58A      2.929076    59A      2.963745    60A      2.987090
      61A      3.080219    62A      3.092819    63A      3.160461
      64A      3.169815    65A      3.199058    66A      3.300184
      67A      3.358244    68A      3.389876    69A      3.494475
      70A      3.499172    71A      3.579756    72A      3.593694
      73A      3.711683    74A      3.806511    75A      3.972150
      76A      4.022288    77A      4.087137    78A      4.130753
      79A      4.190782    80A      4.198959    81A      4.205323
      82A      4.296500    83A      4.368164    84A      4.488893
      85A      4.499136    86A      4.525098    87A      4.867913
      88A      4.923550    89A      5.148028    90A      5.173715
      91A      5.279101    92A      5.329460

    Beta Occupied:

       1A    -10.175061     2A    -10.165431     3A     -0.734431
       4A     -0.580780     5A     -0.440306     6A     -0.395643
       7A     -0.376736     8A     -0.350338

    Beta Virtual:

       9A     -0.036166    10A      0.101701    11A      0.139381
      12A      0.143012    13A      0.170643    14A      0.206944
      15A      0.252186    16A      0.441467    17A      0.445195
      18A      0.455904    19A      0.459630    20A      0.487088
      21A      0.548859    22A      0.587628    23A      0.592633
      24A      0.602238    25A      0.624372    26A      0.641996
      27A      0.645612    28A      0.658259    29A      0.766714
      30A      0.822312    31A      0.869039    32A      0.948614
      33A      0.987926    34A      1.034132    35A      1.078717
      36A      1.090667    37A      1.101308    38A      1.183796
      39A      1.229466    40A      1.265816    41A      1.329857
      42A      1.350964    43A      1.373562    44A      1.425671
      45A      1.453068    46A      1.515447    47A      1.533252
      48A      1.616090    49A      1.772304    50A      1.812996
      51A      1.956515    52A      2.059676    53A      2.110656
      54A      2.721049    55A      2.821532    56A      2.830907
      57A      2.876463    58A      2.931578    59A      2.990302
      60A      3.024060    61A      3.093596    62A      3.119975
      63A      3.178229    64A      3.209996    65A      3.217820
      66A      3.339215    67A      3.370925    68A      3.408597
      69A      3.519269    70A      3.537259    71A      3.596196
      72A      3.603903    73A      3.729807    74A      3.806826
      75A      3.983018    76A      4.031453    77A      4.093509
      78A      4.140234    79A      4.203370    80A      4.205604
      81A      4.214523    82A      4.304506    83A      4.372372
      84A      4.495927    85A      4.509427    86A      4.532510
      87A      4.869271    88A      4.927822    89A      5.151349
      90A      5.184578    91A      5.286185    92A      5.331994

    Final Occupation by Irrep:
              A
    DOCC [     8 ]
    SOCC [     1 ]

  @DF-UKS Final Energy:   -79.16612938106061

   => Energetics <=

    Nuclear Repulsion Energy =             36.9151226766883696
    One-Electron Energy =                -178.0431206115003420
    Two-Electron Energy =                  72.2434001538947541
    DFT Exchange-Correlation Energy =     -10.2815316001434116
    Empirical Dispersion Energy =           0.0000000000000000
    VV10 Nonlocal Energy =                  0.0000000000000000
    Total Energy =                        -79.1661293810606139

  UHF NO Occupations:
  HONO-2 :    7  A 1.9997340
  HONO-1 :    8  A 1.9987101
  HONO-0 :    9  A 1.0000000
  LUNO+0 :   10  A 0.0012899
  LUNO+1 :   11  A 0.0002660
  LUNO+2 :   12  A 0.0002485
  LUNO+3 :   13  A 0.0002227

Computation Completed

Properties will be evaluated at   0.000000,   0.000000,   0.000000 [a0]

Properties computed using the SCF density matrix

  Nuclear Dipole Moment: [e a0]
     X:     0.1466      Y:    -0.6637      Z:    -0.0057

  Electronic Dipole Moment: [e a0]
     X:    -0.1039      Y:     0.5796      Z:     0.0051

  Dipole Moment: [e a0]
     X:     0.0427      Y:    -0.0841      Z:    -0.0006     Total:     0.0943

  Dipole Moment: [D]
     X:     0.1086      Y:    -0.2137      Z:    -0.0016     Total:     0.2397

*** tstop() called on n059 at Fri Nov  5 19:02:15 2021
Module time:
	user time   =      50.28 seconds =       0.84 minutes
	system time =       0.62 seconds =       0.01 minutes
	total time  =         51 seconds =       0.85 minutes
Total time:
	user time   =      50.28 seconds =       0.84 minutes
	system time =       0.62 seconds =       0.01 minutes
	total time  =         51 seconds =       0.85 minutes
Grab this energy -79.16612938106061
    Psi4 stopped on: Friday, 05 November 2021 07:02PM
    Psi4 wall time for execution: 0:00:51.47

*** Psi4 exiting successfully. Buy a developer a beer!
