                               Psi4 1.4a2.dev629

  ==> Input File <==

--------------------------------------------------------------------------
import os
memory 14 GB

molecule {
 C   -0.0064588660   -1.3544778527    0.0002075025
 C   -0.0184144367    1.4656540726    0.0037665357
 H    1.9272271413   -2.1032892053   -0.0011152068
 H   -0.9454632011   -2.1257419060    1.6700877224
 H   -0.9469331273   -2.1150932275   -1.6734781560
 H    0.1309512542    2.5009375548   -1.7497125044
 H    0.1301438118    2.5203202963    1.7502441066
units bohr
0 2
}

basis {

assign 6-31g_2dfp_

[ 6-31g_2dfp_ ]

spherical

!----------------------------------------------------------------------
! Basis Set Exchange
! Version v0.8.13
! https://www.basissetexchange.org
!----------------------------------------------------------------------
!   Basis set: 6-31G(2df,p)
! Description: 6-31G(2df,p)
!        Role: orbital
!     Version: 0  (Data from the original Basis Set Exchange)
!----------------------------------------------------------------------

****
H     0
S    3   1.00
     18.7311370              0.03349460
      2.8253937              0.23472695
      0.6401217              0.81375733
S    1   1.00
      0.1612778              1.00000000
P    1   1.00
      1.5000000              1.0000000
P    1   1.00
      0.3750000              1.0000000
****
B     0
S    6   1.00
   2068.8823000              0.0018663
    310.6495700              0.0142515
     70.6830330              0.0695516
     19.8610800              0.2325729
      6.2993048              0.4670787
      2.1270270              0.3634314
SP   3   1.00
      4.7279710             -0.1303938              0.0745976
      1.1903377             -0.1307889              0.3078467
      0.3594117              1.1309444              0.7434568
SP   1   1.00
      0.1267512              1.0000000              1.0000000
D    1   1.00
      0.8020000              1.0000000
D    1   1.00
      0.2005000              1.0000000
F    1   1.00
      0.5000000              1.0000000
****
C     0
S    6   1.00
   3047.5249000              0.0018347
    457.3695100              0.0140373
    103.9486900              0.0688426
     29.2101550              0.2321844
      9.2866630              0.4679413
      3.1639270              0.3623120
SP   3   1.00
      7.8682724             -0.1193324              0.0689991
      1.8812885             -0.1608542              0.3164240
      0.5442493              1.1434564              0.7443083
SP   1   1.00
      0.1687144              1.0000000              1.0000000
D    1   1.00
      1.2520000              1.0000000
D    1   1.00
      0.3130000              1.0000000
F    1   1.00
      0.8000000              1.0000000
****
N     0
S    6   1.00
   4173.5110000              0.0018348
    627.4579000              0.0139950
    142.9021000              0.0685870
     40.2343300              0.2322410
     12.8202100              0.4690700
      4.3904370              0.3604550
SP   3   1.00
     11.6263580             -0.1149610              0.0675800
      2.7162800             -0.1691180              0.3239070
      0.7722180              1.1458520              0.7408950
SP   1   1.00
      0.2120313              1.0000000              1.0000000
D    1   1.00
      1.8260000              1.0000000
D    1   1.00
      0.4565000              1.0000000
F    1   1.00
      1.0000000              1.0000000
****
O     0
S    6   1.00
   5484.6717000              0.0018311
    825.2349500              0.0139501
    188.0469600              0.0684451
     52.9645000              0.2327143
     16.8975700              0.4701930
      5.7996353              0.3585209
SP   3   1.00
     15.5396160             -0.1107775              0.0708743
      3.5999336             -0.1480263              0.3397528
      1.0137618              1.1307670              0.7271586
SP   1   1.00
      0.2700058              1.0000000              1.0000000
D    1   1.00
      2.5840000              1.0000000
D    1   1.00
      0.6460000              1.0000000
F    1   1.00
      1.4000000              1.0000000
****
F     0
S    6   1.00
   7001.7130900              0.0018196169
   1051.3660900              0.0139160796
    239.2856900              0.0684053245
     67.3974453              0.233185760
     21.5199573              0.471267439
      7.40310130             0.356618546
SP   3   1.00
     20.8479528             -0.108506975            0.0716287243
      4.80830834            -0.146451658            0.3459121030
      1.34406986             1.128688580            0.7224699570
SP   1   1.00
      0.358151393            1.0000000              1.0000000
D    1   1.00
      3.5000000              1.0000000
D    1   1.00
      0.8750000              1.0000000
F    1   1.00
      1.8500000              1.0000000
****
Al     0
S    6   1.00
  13983.1000000              0.00194267
   2098.7500000              0.0148599
    477.7050000              0.0728494
    134.3600000              0.2468300
     42.8709000              0.4872580
     14.5189000              0.3234960
SP   6   1.00
    239.6680000             -0.00292619             0.00460285
     57.4419000             -0.0374080              0.0331990
     18.2859000             -0.1144870              0.1362820
      6.5991400              0.1156350              0.3304760
      2.4904900              0.6125950              0.4491460
      0.9445400              0.3937990              0.2657040
SP   3   1.00
      1.2779000             -0.2276060             -0.0175130
      0.3975900              0.00144583             0.2445330
      0.1600950              1.0927900              0.8049340
SP   1   1.00
      0.0556577              1.0000000              1.0000000
D    1   1.00
      0.6500000              1.0000000
D    1   1.00
      0.1625000              1.0000000
F    1   1.00
      0.2500000              1.0000000
****
Si     0
S    6   1.00
  16115.9000000              0.00195948
   2425.5800000              0.01492880
    553.8670000              0.07284780
    156.3400000              0.24613000
     50.0683000              0.48591400
     17.0178000              0.32500200
SP   6   1.00
    292.7180000             -0.00278094             0.00443826
     69.8731000             -0.03571460             0.03266790
     22.3363000             -0.11498500             0.13472100
      8.1503900              0.09356340             0.32867800
      3.1345800              0.60301700             0.44964000
      1.2254300              0.41895900             0.26137200
SP   3   1.00
      1.7273800             -0.24463000            -0.01779510
      0.5729220              0.00431572             0.25353900
      0.2221920              1.09818000             0.80066900
SP   1   1.00
      0.0778369              1.00000000             1.00000000
D    1   1.00
      0.9000000              1.0000000
D    1   1.00
      0.2250000              1.0000000
F    1   1.00
      0.3200000              1.0000000
****
P     0
S    6   1.00
  19413.3000000              0.0018516
   2909.4200000              0.0142062
    661.3640000              0.0699995
    185.7590000              0.2400790
     59.1943000              0.4847620
     20.0310000              0.3352000
SP   6   1.00
    339.4780000             -0.00278217             0.00456462
     81.0101000             -0.0360499              0.03369360
     25.8780000             -0.1166310              0.13975500
      9.4522100              0.0968328              0.33936200
      3.6656600              0.6144180              0.45092100
      1.4674600              0.4037980              0.23858600
SP   3   1.00
      2.1562300             -0.2529230             -0.01776530
      0.7489970              0.0328517              0.27405800
      0.2831450              1.0812500              0.78542100
SP   1   1.00
      0.0998317              1.0000000              1.00000000
D    1   1.00
      1.1000000              1.0000000
D    1   1.00
      0.2750000              1.0000000
F    1   1.00
      0.4500000              1.0000000
****
S     0
S    6   1.00
  21917.1000000              0.0018690
   3301.4900000              0.0142300
    754.1460000              0.0696960
    212.7110000              0.2384870
     67.9896000              0.4833070
     23.0515000              0.3380740
SP   6   1.00
    423.7350000             -0.0023767              0.0040610
    100.7100000             -0.0316930              0.0306810
     32.1599000             -0.1133170              0.1304520
     11.8079000              0.0560900              0.3272050
      4.6311000              0.5922550              0.4528510
      1.8702500              0.4550060              0.2560420
SP   3   1.00
      2.6158400             -0.2503740             -0.0145110
      0.9221670              0.0669570              0.3102630
      0.3412870              1.0545100              0.7544830
SP   1   1.00
      0.1171670              1.0000000              1.0000000
D    1   1.00
      1.3000000              1.0000000
D    1   1.00
      0.3250000              1.0000000
F    1   1.00
      0.5500000              1.0000000
****
Cl     0
S    6   1.00
  25180.1000000              0.0018330
   3780.3500000              0.0140340
    860.4740000              0.0690970
    242.1450000              0.2374520
     77.3349000              0.4830340
     26.2470000              0.3398560
SP   6   1.00
    491.7650000             -0.0022974              0.0039894
    116.9840000             -0.0307140              0.0303180
     37.4153000             -0.1125280              0.1298800
     13.7834000              0.0450160              0.3279510
      5.4521500              0.5893530              0.4535270
      2.2258800              0.4652060              0.2521540
SP   3   1.00
      3.1864900             -0.2518300             -0.0142990
      1.1442700              0.0615890              0.3235720
      0.4203770              1.0601800              0.7435070
SP   1   1.00
      0.1426570              1.0000000              1.0000000
D    1   1.00
      1.5000000              1.0000000
D    1   1.00
      0.3750000              1.0000000
F    1   1.00
      0.7000000              1.0000000
****
}

set {
reference uhf
freeze_core true
e_convergence 10
d_convergence 10
dft_spherical_points 1202
dft_radial_points 99
}

e = energy('b3lyp')

print_out('Grab this energy {0}'.format(e))
--------------------------------------------------------------------------

    Molecular point group: c1

    Geometry (in Bohr), charge = 0, multiplicity = 2:

       Center              X                  Y                   Z               Mass
    ------------   -----------------  -----------------  -----------------  -----------------
         C           -0.006450665892    -1.354508730979    -0.001296789485    12.000000000000
         C           -0.018406236592     1.465623194321     0.002262243715    12.000000000000
         H            1.927235341408    -2.103320083579    -0.002619498785     1.007825032230
         H           -0.945455000992    -2.125772784279     1.668583430415     1.007825032230
         H           -0.946924927192    -2.115124105779    -1.674982447985     1.007825032230
         H            0.130959454308     2.500906676521    -1.751216796385     1.007825032230
         H            0.130152011908     2.520289418021     1.748739814615     1.007825032230

  Charge       = 0
  Multiplicity = 2
  Basis Set: ANONYMOUS3A8991C0
    Blend: 6-31G_2DFP_
  Basis Set: (ANONYMOUS3A8991C0 AUX)
    Blend: DEF2-UNIVERSAL-JKFIT

    Orbital Energies [Eh]
    ---------------------

    Alpha Occupied:

       1A    -10.179529     2A    -10.174234     3A     -0.751488
       4A     -0.604938     5A     -0.445976     6A     -0.410896
       7A     -0.385264     8A     -0.354033     9A     -0.197311

    Alpha Virtual:

      10A      0.099040    11A      0.128002    12A      0.140771
      13A      0.165741    14A      0.203187    15A      0.247182
      16A      0.430333    17A      0.440636    18A      0.446229
      19A      0.450363    20A      0.478269    21A      0.520932
      22A      0.544137    23A      0.574323    24A      0.593963
      25A      0.618449    26A      0.634088    27A      0.639655
      28A      0.649806    29A      0.741109    30A      0.822234
      31A      0.865886    32A      0.932004    33A      0.976477
      34A      1.025732    35A      1.070605    36A      1.083688
      37A      1.085753    38A      1.180588    39A      1.220434
      40A      1.252403    41A      1.323018    42A      1.345452
      43A      1.367841    44A      1.421027    45A      1.445020
      46A      1.509719    47A      1.523967    48A      1.602954
      49A      1.765165    50A      1.805851    51A      1.951521
      52A      2.049496    53A      2.103435    54A      2.699172
      55A      2.800669    56A      2.828438    57A      2.860333
      58A      2.928871    59A      2.962898    60A      2.986542
      61A      3.079961    62A      3.094523    63A      3.159447
      64A      3.169931    65A      3.199123    66A      3.300402
      67A      3.356195    68A      3.391437    69A      3.493868
      70A      3.499170    71A      3.580139    72A      3.593863
      73A      3.712221    74A      3.805670    75A      3.974651
      76A      4.024117    77A      4.087495    78A      4.129851
      79A      4.189331    80A      4.198045    81A      4.205696
      82A      4.294505    83A      4.368482    84A      4.488543
      85A      4.503539    86A      4.524750    87A      4.864207
      88A      4.924504    89A      5.145613    90A      5.168981
      91A      5.279071    92A      5.327871

    Beta Occupied:

       1A    -10.175050     2A    -10.165582     3A     -0.734835
       4A     -0.580300     5A     -0.439816     6A     -0.396302
       7A     -0.377300     8A     -0.349602

    Beta Virtual:

       9A     -0.035958    10A      0.101688    11A      0.139178
      12A      0.142393    13A      0.170513    14A      0.206795
      15A      0.252939    16A      0.441687    17A      0.444935
      18A      0.456049    19A      0.459326    20A      0.487012
      21A      0.549375    22A      0.587671    23A      0.592468
      24A      0.602786    25A      0.623801    26A      0.641939
      27A      0.645384    28A      0.657261    29A      0.766464
      30A      0.822027    31A      0.868902    32A      0.949635
      33A      0.987605    34A      1.034472    35A      1.078554
      36A      1.089381    37A      1.102038    38A      1.184306
      39A      1.228158    40A      1.264689    41A      1.329474
      42A      1.352962    43A      1.374203    44A      1.427006
      45A      1.452552    46A      1.514304    47A      1.535212
      48A      1.614064    49A      1.771639    50A      1.812103
      51A      1.955950    52A      2.059456    53A      2.108938
      54A      2.722435    55A      2.822550    56A      2.830259
      57A      2.876447    58A      2.931406    59A      2.989895
      60A      3.023148    61A      3.093457    62A      3.121551
      63A      3.177184    64A      3.210046    65A      3.218241
      66A      3.339130    67A      3.369589    68A      3.409438
      69A      3.518540    70A      3.536696    71A      3.597293
      72A      3.604073    73A      3.730369    74A      3.806034
      75A      3.984734    76A      4.033951    77A      4.093934
      78A      4.139315    79A      4.202410    80A      4.204062
      81A      4.214974    82A      4.302545    83A      4.372748
      84A      4.495510    85A      4.514029    86A      4.531984
      87A      4.865569    88A      4.928753    89A      5.148945
      90A      5.179867    91A      5.286203    92A      5.330408

    Final Occupation by Irrep:
              A
    DOCC [     8 ]
    SOCC [     1 ]

  @DF-UKS Final Energy:   -79.16615423354341

   => Energetics <=

    Nuclear Repulsion Energy =             36.9262852704543931
    One-Electron Energy =                -178.0659096092639686
    Two-Electron Energy =                  72.2544866476523850
    DFT Exchange-Correlation Energy =     -10.2810165423862312
    Empirical Dispersion Energy =           0.0000000000000000
    VV10 Nonlocal Energy =                  0.0000000000000000
    Total Energy =                        -79.1661542335434092

  UHF NO Occupations:
  HONO-2 :    7  A 1.9997313
  HONO-1 :    8  A 1.9987074
  HONO-0 :    9  A 1.0000000
  LUNO+0 :   10  A 0.0012926
  LUNO+1 :   11  A 0.0002687
  LUNO+2 :   12  A 0.0002483
  LUNO+3 :   13  A 0.0002212

Computation Completed

Properties will be evaluated at   0.000000,   0.000000,   0.000000 [a0]

Properties computed using the SCF density matrix

  Nuclear Dipole Moment: [e a0]
     X:     0.1468      Y:    -0.6563      Z:    -0.0057

  Electronic Dipole Moment: [e a0]
     X:    -0.1034      Y:     0.5711      Z:     0.0051

  Dipole Moment: [e a0]
     X:     0.0434      Y:    -0.0852      Z:    -0.0006     Total:     0.0957

  Dipole Moment: [D]
     X:     0.1104      Y:    -0.2167      Z:    -0.0016     Total:     0.2432

*** tstop() called on n091 at Fri Nov  5 19:24:46 2021
Module time:
	user time   =      43.61 seconds =       0.73 minutes
	system time =       0.55 seconds =       0.01 minutes
	total time  =         44 seconds =       0.73 minutes
Total time:
	user time   =      43.61 seconds =       0.73 minutes
	system time =       0.55 seconds =       0.01 minutes
	total time  =         44 seconds =       0.73 minutes
Grab this energy -79.16615423354341
    Psi4 stopped on: Friday, 05 November 2021 07:24PM
    Psi4 wall time for execution: 0:00:44.21

*** Psi4 exiting successfully. Buy a developer a beer!
