                               Psi4 1.4a2.dev629

  ==> Input File <==

--------------------------------------------------------------------------
import os
memory 14 GB

molecule {
 C   -0.0055046423   -1.3557569888    0.0000000000
 C   -0.0194720553    1.4604156225    0.0000000000
 H    1.9229352104   -2.1110587303    0.0000000000
 H   -0.9417738494   -2.1154557736    1.6675626165
 H   -0.9417738494   -2.1154557736   -1.6675626165
 H    0.1283208812    2.5128106880   -1.7503685249
 H    0.1283208812    2.5128106880    1.7503685249
units bohr
0 2
}

basis {

assign 6-31g_2dfp_

[ 6-31g_2dfp_ ]

spherical

!----------------------------------------------------------------------
! Basis Set Exchange
! Version v0.8.13
! https://www.basissetexchange.org
!----------------------------------------------------------------------
!   Basis set: 6-31G(2df,p)
! Description: 6-31G(2df,p)
!        Role: orbital
!     Version: 0  (Data from the original Basis Set Exchange)
!----------------------------------------------------------------------

****
H     0
S    3   1.00
     18.7311370              0.03349460
      2.8253937              0.23472695
      0.6401217              0.81375733
S    1   1.00
      0.1612778              1.00000000
P    1   1.00
      1.5000000              1.0000000
P    1   1.00
      0.3750000              1.0000000
****
B     0
S    6   1.00
   2068.8823000              0.0018663
    310.6495700              0.0142515
     70.6830330              0.0695516
     19.8610800              0.2325729
      6.2993048              0.4670787
      2.1270270              0.3634314
SP   3   1.00
      4.7279710             -0.1303938              0.0745976
      1.1903377             -0.1307889              0.3078467
      0.3594117              1.1309444              0.7434568
SP   1   1.00
      0.1267512              1.0000000              1.0000000
D    1   1.00
      0.8020000              1.0000000
D    1   1.00
      0.2005000              1.0000000
F    1   1.00
      0.5000000              1.0000000
****
C     0
S    6   1.00
   3047.5249000              0.0018347
    457.3695100              0.0140373
    103.9486900              0.0688426
     29.2101550              0.2321844
      9.2866630              0.4679413
      3.1639270              0.3623120
SP   3   1.00
      7.8682724             -0.1193324              0.0689991
      1.8812885             -0.1608542              0.3164240
      0.5442493              1.1434564              0.7443083
SP   1   1.00
      0.1687144              1.0000000              1.0000000
D    1   1.00
      1.2520000              1.0000000
D    1   1.00
      0.3130000              1.0000000
F    1   1.00
      0.8000000              1.0000000
****
N     0
S    6   1.00
   4173.5110000              0.0018348
    627.4579000              0.0139950
    142.9021000              0.0685870
     40.2343300              0.2322410
     12.8202100              0.4690700
      4.3904370              0.3604550
SP   3   1.00
     11.6263580             -0.1149610              0.0675800
      2.7162800             -0.1691180              0.3239070
      0.7722180              1.1458520              0.7408950
SP   1   1.00
      0.2120313              1.0000000              1.0000000
D    1   1.00
      1.8260000              1.0000000
D    1   1.00
      0.4565000              1.0000000
F    1   1.00
      1.0000000              1.0000000
****
O     0
S    6   1.00
   5484.6717000              0.0018311
    825.2349500              0.0139501
    188.0469600              0.0684451
     52.9645000              0.2327143
     16.8975700              0.4701930
      5.7996353              0.3585209
SP   3   1.00
     15.5396160             -0.1107775              0.0708743
      3.5999336             -0.1480263              0.3397528
      1.0137618              1.1307670              0.7271586
SP   1   1.00
      0.2700058              1.0000000              1.0000000
D    1   1.00
      2.5840000              1.0000000
D    1   1.00
      0.6460000              1.0000000
F    1   1.00
      1.4000000              1.0000000
****
F     0
S    6   1.00
   7001.7130900              0.0018196169
   1051.3660900              0.0139160796
    239.2856900              0.0684053245
     67.3974453              0.233185760
     21.5199573              0.471267439
      7.40310130             0.356618546
SP   3   1.00
     20.8479528             -0.108506975            0.0716287243
      4.80830834            -0.146451658            0.3459121030
      1.34406986             1.128688580            0.7224699570
SP   1   1.00
      0.358151393            1.0000000              1.0000000
D    1   1.00
      3.5000000              1.0000000
D    1   1.00
      0.8750000              1.0000000
F    1   1.00
      1.8500000              1.0000000
****
Al     0
S    6   1.00
  13983.1000000              0.00194267
   2098.7500000              0.0148599
    477.7050000              0.0728494
    134.3600000              0.2468300
     42.8709000              0.4872580
     14.5189000              0.3234960
SP   6   1.00
    239.6680000             -0.00292619             0.00460285
     57.4419000             -0.0374080              0.0331990
     18.2859000             -0.1144870              0.1362820
      6.5991400              0.1156350              0.3304760
      2.4904900              0.6125950              0.4491460
      0.9445400              0.3937990              0.2657040
SP   3   1.00
      1.2779000             -0.2276060             -0.0175130
      0.3975900              0.00144583             0.2445330
      0.1600950              1.0927900              0.8049340
SP   1   1.00
      0.0556577              1.0000000              1.0000000
D    1   1.00
      0.6500000              1.0000000
D    1   1.00
      0.1625000              1.0000000
F    1   1.00
      0.2500000              1.0000000
****
Si     0
S    6   1.00
  16115.9000000              0.00195948
   2425.5800000              0.01492880
    553.8670000              0.07284780
    156.3400000              0.24613000
     50.0683000              0.48591400
     17.0178000              0.32500200
SP   6   1.00
    292.7180000             -0.00278094             0.00443826
     69.8731000             -0.03571460             0.03266790
     22.3363000             -0.11498500             0.13472100
      8.1503900              0.09356340             0.32867800
      3.1345800              0.60301700             0.44964000
      1.2254300              0.41895900             0.26137200
SP   3   1.00
      1.7273800             -0.24463000            -0.01779510
      0.5729220              0.00431572             0.25353900
      0.2221920              1.09818000             0.80066900
SP   1   1.00
      0.0778369              1.00000000             1.00000000
D    1   1.00
      0.9000000              1.0000000
D    1   1.00
      0.2250000              1.0000000
F    1   1.00
      0.3200000              1.0000000
****
P     0
S    6   1.00
  19413.3000000              0.0018516
   2909.4200000              0.0142062
    661.3640000              0.0699995
    185.7590000              0.2400790
     59.1943000              0.4847620
     20.0310000              0.3352000
SP   6   1.00
    339.4780000             -0.00278217             0.00456462
     81.0101000             -0.0360499              0.03369360
     25.8780000             -0.1166310              0.13975500
      9.4522100              0.0968328              0.33936200
      3.6656600              0.6144180              0.45092100
      1.4674600              0.4037980              0.23858600
SP   3   1.00
      2.1562300             -0.2529230             -0.01776530
      0.7489970              0.0328517              0.27405800
      0.2831450              1.0812500              0.78542100
SP   1   1.00
      0.0998317              1.0000000              1.00000000
D    1   1.00
      1.1000000              1.0000000
D    1   1.00
      0.2750000              1.0000000
F    1   1.00
      0.4500000              1.0000000
****
S     0
S    6   1.00
  21917.1000000              0.0018690
   3301.4900000              0.0142300
    754.1460000              0.0696960
    212.7110000              0.2384870
     67.9896000              0.4833070
     23.0515000              0.3380740
SP   6   1.00
    423.7350000             -0.0023767              0.0040610
    100.7100000             -0.0316930              0.0306810
     32.1599000             -0.1133170              0.1304520
     11.8079000              0.0560900              0.3272050
      4.6311000              0.5922550              0.4528510
      1.8702500              0.4550060              0.2560420
SP   3   1.00
      2.6158400             -0.2503740             -0.0145110
      0.9221670              0.0669570              0.3102630
      0.3412870              1.0545100              0.7544830
SP   1   1.00
      0.1171670              1.0000000              1.0000000
D    1   1.00
      1.3000000              1.0000000
D    1   1.00
      0.3250000              1.0000000
F    1   1.00
      0.5500000              1.0000000
****
Cl     0
S    6   1.00
  25180.1000000              0.0018330
   3780.3500000              0.0140340
    860.4740000              0.0690970
    242.1450000              0.2374520
     77.3349000              0.4830340
     26.2470000              0.3398560
SP   6   1.00
    491.7650000             -0.0022974              0.0039894
    116.9840000             -0.0307140              0.0303180
     37.4153000             -0.1125280              0.1298800
     13.7834000              0.0450160              0.3279510
      5.4521500              0.5893530              0.4535270
      2.2258800              0.4652060              0.2521540
SP   3   1.00
      3.1864900             -0.2518300             -0.0142990
      1.1442700              0.0615890              0.3235720
      0.4203770              1.0601800              0.7435070
SP   1   1.00
      0.1426570              1.0000000              1.0000000
D    1   1.00
      1.5000000              1.0000000
D    1   1.00
      0.3750000              1.0000000
F    1   1.00
      0.7000000              1.0000000
****
}

set {
reference uhf
freeze_core true
e_convergence 10
d_convergence 10
dft_spherical_points 1202
dft_radial_points 99
}

e = energy('b3lyp')

print_out('Grab this energy {0}'.format(e))
--------------------------------------------------------------------------

    Molecular point group: cs

    Geometry (in Bohr), charge = 0, multiplicity = 2:

       Center              X                  Y                   Z               Mass
    ------------   -----------------  -----------------  -----------------  -----------------
         C           -0.005457304146    -1.353320766314     0.000000000000    12.000000000000
         C           -0.019424717146     1.462851844986     0.000000000000    12.000000000000
         H            1.922982548554    -2.108622507814     0.000000000000     1.007825032230
         H           -0.941726511246    -2.113019551114     1.667562616500     1.007825032230
         H           -0.941726511246    -2.113019551114    -1.667562616500     1.007825032230
         H            0.128368219354     2.515246910486    -1.750368524900     1.007825032230
         H            0.128368219354     2.515246910486     1.750368524900     1.007825032230

  Charge       = 0
  Multiplicity = 2
  Basis Set: ANONYMOUSDEADA162
    Blend: 6-31G_2DFP_
  Basis Set: (ANONYMOUSDEADA162 AUX)
    Blend: DEF2-UNIVERSAL-JKFIT

    Orbital Energies [Eh]
    ---------------------

    Alpha Occupied:

       1Ap   -10.179673     2Ap   -10.173315     3Ap    -0.752130
       4Ap    -0.605004     1App   -0.446079     5Ap    -0.411258
       6Ap    -0.385796     2App   -0.354024     7Ap    -0.197182

    Alpha Virtual:

       8Ap     0.099335     9Ap     0.127821     3App    0.141171
      10Ap     0.166328     4App    0.203341    11Ap     0.247942
      12Ap     0.430655     5App    0.440757    13Ap     0.445767
       6App    0.450109    14Ap     0.478997    15Ap     0.521317
      16Ap     0.543871     7App    0.574628    17Ap     0.595363
       8App    0.619049    18Ap     0.634650    19Ap     0.640721
       9App    0.649725    20Ap     0.741324    10App    0.822983
      11App    0.867290    21Ap     0.931986    22Ap     0.977614
      12App    1.024393    13App    1.072196    23Ap     1.083376
      24Ap     1.086312    25Ap     1.180297    14App    1.219595
      26Ap     1.254564    15App    1.324531    27Ap     1.346078
      28Ap     1.369271    29Ap     1.422000    16App    1.447577
      17App    1.509413    30Ap     1.526690    31Ap     1.601848
      32Ap     1.765207    33Ap     1.810149    18App    1.954672
      19App    2.050199    34Ap     2.101723    35Ap     2.699605
      36Ap     2.803264    20App    2.829137    21App    2.862284
      22App    2.929677    37Ap     2.963011    38Ap     2.986342
      23App    3.079593    39Ap     3.094562    24App    3.157592
      40Ap     3.171321    25App    3.198779    26App    3.300719
      41Ap     3.357801    42Ap     3.388254    43Ap     3.493970
      27App    3.499226    28App    3.581009    44Ap     3.597339
      45Ap     3.713671    29App    3.807202    46Ap     3.977200
      47Ap     4.025160    48Ap     4.092424    49Ap     4.128059
      30App    4.188044    31App    4.203602    50Ap     4.209838
      51Ap     4.292440    32App    4.373190    33App    4.494720
      52Ap     4.506251    53Ap     4.531496    34App    4.863388
      54Ap     4.927804    35App    5.144954    55Ap     5.164331
      56Ap     5.286844    36App    5.335533

    Beta Occupied:

       1Ap   -10.174130     2Ap   -10.165725     3Ap    -0.735607
       4Ap    -0.580224     1App   -0.440010     5Ap    -0.396575
       6Ap    -0.377865     2App   -0.349508

    Beta Virtual:

       7Ap    -0.035881     8Ap     0.102057     9Ap     0.138958
       3App    0.142845    10Ap     0.171122     4App    0.206935
      11Ap     0.253671     5App    0.441839    12Ap     0.444992
       6App    0.455779    13Ap     0.459003    14Ap     0.487866
      15Ap     0.549806     7App    0.588245    16Ap     0.592299
      17Ap     0.604075     8App    0.624210    18Ap     0.642435
      19Ap     0.646315     9App    0.657124    20Ap     0.766763
      10App    0.822740    11App    0.870323    21Ap     0.949544
      22Ap     0.988910    12App    1.033140    13App    1.080102
      23Ap     1.088065    24Ap     1.103745    25Ap     1.183904
      14App    1.227327    26Ap     1.266948    15App    1.331089
      27Ap     1.353576    28Ap     1.375642    29Ap     1.427980
      16App    1.455014    17App    1.513965    30Ap     1.538199
      31Ap     1.612671    32Ap     1.771862    33Ap     1.816168
      18App    1.959103    19App    2.060150    34Ap     2.107265
      35Ap     2.722871    36Ap     2.825225    20App    2.831086
      21App    2.878259    22App    2.932251    37Ap     2.990659
      38Ap     3.022464    23App    3.092993    39Ap     3.121650
      24App    3.175436    40Ap     3.211432    25App    3.217929
      26App    3.339035    41Ap     3.369603    42Ap     3.407387
      27App    3.518693    43Ap     3.537380    28App    3.598479
      44Ap     3.607382    45Ap     3.731886    29App    3.807483
      46Ap     3.987308    47Ap     4.034505    48Ap     4.099069
      49Ap     4.137616    30App    4.202282    31App    4.208457
      50Ap     4.218971    51Ap     4.300460    32App    4.377431
      33App    4.501602    52Ap     4.516958    53Ap     4.538701
      34App    4.864725    54Ap     4.932110    35App    5.148291
      55Ap     5.175238    56Ap     5.293931    36App    5.338052

    Final Occupation by Irrep:
             Ap   App
    DOCC [     6,    2 ]
    SOCC [     1,    0 ]

  @DF-UKS Final Energy:   -79.16613306741148

   => Energetics <=

    Nuclear Repulsion Energy =             36.9657466065370670
    One-Electron Energy =                -178.1417312495638896
    Two-Electron Energy =                  72.2929094059291515
    DFT Exchange-Correlation Energy =     -10.2830578303138047
    Empirical Dispersion Energy =           0.0000000000000000
    VV10 Nonlocal Energy =                  0.0000000000000000
    Total Energy =                        -79.1661330674114794

  UHF NO Occupations:
  HONO-2 :    2App 1.9997287
  HONO-1 :    6 Ap 1.9987060
  HONO-0 :    7 Ap 1.0000000
  LUNO+0 :    8 Ap 0.0012940
  LUNO+1 :    3App 0.0002713
  LUNO+2 :    9 Ap 0.0002488
  LUNO+3 :   10 Ap 0.0002211

Computation Completed

Properties will be evaluated at   0.000000,   0.000000,   0.000000 [a0]

Properties computed using the SCF density matrix

  Nuclear Dipole Moment: [e a0]
     X:     0.1470      Y:    -0.6470      Z:     0.0000

  Electronic Dipole Moment: [e a0]
     X:    -0.1045      Y:     0.5594      Z:     0.0000

  Dipole Moment: [e a0]
     X:     0.0424      Y:    -0.0875      Z:     0.0000     Total:     0.0973

  Dipole Moment: [D]
     X:     0.1079      Y:    -0.2225      Z:     0.0000     Total:     0.2473

*** tstop() called on n044 at Fri Nov  5 18:53:09 2021
Module time:
	user time   =      65.67 seconds =       1.09 minutes
	system time =       0.45 seconds =       0.01 minutes
	total time  =         66 seconds =       1.10 minutes
Total time:
	user time   =      65.67 seconds =       1.09 minutes
	system time =       0.45 seconds =       0.01 minutes
	total time  =         66 seconds =       1.10 minutes
Grab this energy -79.16613306741148
    Psi4 stopped on: Friday, 05 November 2021 06:53PM
    Psi4 wall time for execution: 0:01:06.17

*** Psi4 exiting successfully. Buy a developer a beer!
