                               Psi4 1.4a2.dev629

  ==> Input File <==

--------------------------------------------------------------------------
import os
memory 14 GB

molecule {
 C   -0.0040996686   -1.3545502272   -0.0000000000
 C   -0.0213593594    1.4666413328   -0.0000000000
 H    1.9285906571   -2.1126658368   -0.0000000000
 H   -0.9447181524   -2.1162103940    1.6725598794
 H   -0.9447181524   -2.1162103940   -1.6725598794
 H    0.1286786260    2.5106526257   -1.7567667466
 H    0.1286786260    2.5106526257    1.7567667466
units bohr
0 2
}

basis {

assign 6-31g_2dfp_

[ 6-31g_2dfp_ ]

spherical

!----------------------------------------------------------------------
! Basis Set Exchange
! Version v0.8.13
! https://www.basissetexchange.org
!----------------------------------------------------------------------
!   Basis set: 6-31G(2df,p)
! Description: 6-31G(2df,p)
!        Role: orbital
!     Version: 0  (Data from the original Basis Set Exchange)
!----------------------------------------------------------------------

****
H     0
S    3   1.00
     18.7311370              0.03349460
      2.8253937              0.23472695
      0.6401217              0.81375733
S    1   1.00
      0.1612778              1.00000000
P    1   1.00
      1.5000000              1.0000000
P    1   1.00
      0.3750000              1.0000000
****
B     0
S    6   1.00
   2068.8823000              0.0018663
    310.6495700              0.0142515
     70.6830330              0.0695516
     19.8610800              0.2325729
      6.2993048              0.4670787
      2.1270270              0.3634314
SP   3   1.00
      4.7279710             -0.1303938              0.0745976
      1.1903377             -0.1307889              0.3078467
      0.3594117              1.1309444              0.7434568
SP   1   1.00
      0.1267512              1.0000000              1.0000000
D    1   1.00
      0.8020000              1.0000000
D    1   1.00
      0.2005000              1.0000000
F    1   1.00
      0.5000000              1.0000000
****
C     0
S    6   1.00
   3047.5249000              0.0018347
    457.3695100              0.0140373
    103.9486900              0.0688426
     29.2101550              0.2321844
      9.2866630              0.4679413
      3.1639270              0.3623120
SP   3   1.00
      7.8682724             -0.1193324              0.0689991
      1.8812885             -0.1608542              0.3164240
      0.5442493              1.1434564              0.7443083
SP   1   1.00
      0.1687144              1.0000000              1.0000000
D    1   1.00
      1.2520000              1.0000000
D    1   1.00
      0.3130000              1.0000000
F    1   1.00
      0.8000000              1.0000000
****
N     0
S    6   1.00
   4173.5110000              0.0018348
    627.4579000              0.0139950
    142.9021000              0.0685870
     40.2343300              0.2322410
     12.8202100              0.4690700
      4.3904370              0.3604550
SP   3   1.00
     11.6263580             -0.1149610              0.0675800
      2.7162800             -0.1691180              0.3239070
      0.7722180              1.1458520              0.7408950
SP   1   1.00
      0.2120313              1.0000000              1.0000000
D    1   1.00
      1.8260000              1.0000000
D    1   1.00
      0.4565000              1.0000000
F    1   1.00
      1.0000000              1.0000000
****
O     0
S    6   1.00
   5484.6717000              0.0018311
    825.2349500              0.0139501
    188.0469600              0.0684451
     52.9645000              0.2327143
     16.8975700              0.4701930
      5.7996353              0.3585209
SP   3   1.00
     15.5396160             -0.1107775              0.0708743
      3.5999336             -0.1480263              0.3397528
      1.0137618              1.1307670              0.7271586
SP   1   1.00
      0.2700058              1.0000000              1.0000000
D    1   1.00
      2.5840000              1.0000000
D    1   1.00
      0.6460000              1.0000000
F    1   1.00
      1.4000000              1.0000000
****
F     0
S    6   1.00
   7001.7130900              0.0018196169
   1051.3660900              0.0139160796
    239.2856900              0.0684053245
     67.3974453              0.233185760
     21.5199573              0.471267439
      7.40310130             0.356618546
SP   3   1.00
     20.8479528             -0.108506975            0.0716287243
      4.80830834            -0.146451658            0.3459121030
      1.34406986             1.128688580            0.7224699570
SP   1   1.00
      0.358151393            1.0000000              1.0000000
D    1   1.00
      3.5000000              1.0000000
D    1   1.00
      0.8750000              1.0000000
F    1   1.00
      1.8500000              1.0000000
****
Al     0
S    6   1.00
  13983.1000000              0.00194267
   2098.7500000              0.0148599
    477.7050000              0.0728494
    134.3600000              0.2468300
     42.8709000              0.4872580
     14.5189000              0.3234960
SP   6   1.00
    239.6680000             -0.00292619             0.00460285
     57.4419000             -0.0374080              0.0331990
     18.2859000             -0.1144870              0.1362820
      6.5991400              0.1156350              0.3304760
      2.4904900              0.6125950              0.4491460
      0.9445400              0.3937990              0.2657040
SP   3   1.00
      1.2779000             -0.2276060             -0.0175130
      0.3975900              0.00144583             0.2445330
      0.1600950              1.0927900              0.8049340
SP   1   1.00
      0.0556577              1.0000000              1.0000000
D    1   1.00
      0.6500000              1.0000000
D    1   1.00
      0.1625000              1.0000000
F    1   1.00
      0.2500000              1.0000000
****
Si     0
S    6   1.00
  16115.9000000              0.00195948
   2425.5800000              0.01492880
    553.8670000              0.07284780
    156.3400000              0.24613000
     50.0683000              0.48591400
     17.0178000              0.32500200
SP   6   1.00
    292.7180000             -0.00278094             0.00443826
     69.8731000             -0.03571460             0.03266790
     22.3363000             -0.11498500             0.13472100
      8.1503900              0.09356340             0.32867800
      3.1345800              0.60301700             0.44964000
      1.2254300              0.41895900             0.26137200
SP   3   1.00
      1.7273800             -0.24463000            -0.01779510
      0.5729220              0.00431572             0.25353900
      0.2221920              1.09818000             0.80066900
SP   1   1.00
      0.0778369              1.00000000             1.00000000
D    1   1.00
      0.9000000              1.0000000
D    1   1.00
      0.2250000              1.0000000
F    1   1.00
      0.3200000              1.0000000
****
P     0
S    6   1.00
  19413.3000000              0.0018516
   2909.4200000              0.0142062
    661.3640000              0.0699995
    185.7590000              0.2400790
     59.1943000              0.4847620
     20.0310000              0.3352000
SP   6   1.00
    339.4780000             -0.00278217             0.00456462
     81.0101000             -0.0360499              0.03369360
     25.8780000             -0.1166310              0.13975500
      9.4522100              0.0968328              0.33936200
      3.6656600              0.6144180              0.45092100
      1.4674600              0.4037980              0.23858600
SP   3   1.00
      2.1562300             -0.2529230             -0.01776530
      0.7489970              0.0328517              0.27405800
      0.2831450              1.0812500              0.78542100
SP   1   1.00
      0.0998317              1.0000000              1.00000000
D    1   1.00
      1.1000000              1.0000000
D    1   1.00
      0.2750000              1.0000000
F    1   1.00
      0.4500000              1.0000000
****
S     0
S    6   1.00
  21917.1000000              0.0018690
   3301.4900000              0.0142300
    754.1460000              0.0696960
    212.7110000              0.2384870
     67.9896000              0.4833070
     23.0515000              0.3380740
SP   6   1.00
    423.7350000             -0.0023767              0.0040610
    100.7100000             -0.0316930              0.0306810
     32.1599000             -0.1133170              0.1304520
     11.8079000              0.0560900              0.3272050
      4.6311000              0.5922550              0.4528510
      1.8702500              0.4550060              0.2560420
SP   3   1.00
      2.6158400             -0.2503740             -0.0145110
      0.9221670              0.0669570              0.3102630
      0.3412870              1.0545100              0.7544830
SP   1   1.00
      0.1171670              1.0000000              1.0000000
D    1   1.00
      1.3000000              1.0000000
D    1   1.00
      0.3250000              1.0000000
F    1   1.00
      0.5500000              1.0000000
****
Cl     0
S    6   1.00
  25180.1000000              0.0018330
   3780.3500000              0.0140340
    860.4740000              0.0690970
    242.1450000              0.2374520
     77.3349000              0.4830340
     26.2470000              0.3398560
SP   6   1.00
    491.7650000             -0.0022974              0.0039894
    116.9840000             -0.0307140              0.0303180
     37.4153000             -0.1125280              0.1298800
     13.7834000              0.0450160              0.3279510
      5.4521500              0.5893530              0.4535270
      2.2258800              0.4652060              0.2521540
SP   3   1.00
      3.1864900             -0.2518300             -0.0142990
      1.1442700              0.0615890              0.3235720
      0.4203770              1.0601800              0.7435070
SP   1   1.00
      0.1426570              1.0000000              1.0000000
D    1   1.00
      1.5000000              1.0000000
D    1   1.00
      0.3750000              1.0000000
F    1   1.00
      0.7000000              1.0000000
****
}

set {
reference uhf
freeze_core true
e_convergence 10
d_convergence 10
dft_spherical_points 1202
dft_radial_points 99
}

e = energy('b3lyp')

print_out('Grab this energy {0}'.format(e))
--------------------------------------------------------------------------

    Molecular point group: cs

    Geometry (in Bohr), charge = 0, multiplicity = 2:

       Center              X                  Y                   Z               Mass
    ------------   -----------------  -----------------  -----------------  -----------------
         C           -0.003869754000    -1.354927417003     0.000000000000    12.000000000000
         C           -0.021129444800     1.466264142997     0.000000000000    12.000000000000
         H            1.928820571700    -2.113043026603     0.000000000000     1.007825032230
         H           -0.944488237800    -2.116587583803     1.672559879400     1.007825032230
         H           -0.944488237800    -2.116587583803    -1.672559879400     1.007825032230
         H            0.128908540600     2.510275435897    -1.756766746600     1.007825032230
         H            0.128908540600     2.510275435897     1.756766746600     1.007825032230

  Charge       = 0
  Multiplicity = 2
  Basis Set: ANONYMOUSE2B3B391
    Blend: 6-31G_2DFP_
  Basis Set: (ANONYMOUSE2B3B391 AUX)
    Blend: DEF2-UNIVERSAL-JKFIT

    Orbital Energies [Eh]
    ---------------------

    Alpha Occupied:

       1Ap   -10.180221     2Ap   -10.174308     3Ap    -0.751245
       4Ap    -0.604415     1App   -0.445976     5Ap    -0.410586
       6Ap    -0.384735     2App   -0.354032     7Ap    -0.197506

    Alpha Virtual:

       8Ap     0.098725     9Ap     0.127485     3App    0.140634
      10Ap     0.165784     4App    0.202719    11Ap     0.246660
      12Ap     0.430183     5App    0.440582    13Ap     0.446254
       6App    0.449980    14Ap     0.478465    15Ap     0.520805
      16Ap     0.543718     7App    0.573539    17Ap     0.593161
       8App    0.618265    18Ap     0.633997    19Ap     0.639306
       9App    0.649031    20Ap     0.741141    10App    0.821500
      11App    0.865787    21Ap     0.930943    22Ap     0.975179
      12App    1.024535    13App    1.070321    23Ap     1.082150
      24Ap     1.086119    25Ap     1.180427    14App    1.220706
      26Ap     1.253433    15App    1.322546    27Ap     1.343844
      28Ap     1.367649    29Ap     1.419637    16App    1.444932
      17App    1.507922    30Ap     1.522979    31Ap     1.599614
      32Ap     1.762884    33Ap     1.805257    18App    1.951020
      19App    2.044180    34Ap     2.102046    35Ap     2.698235
      36Ap     2.800750    20App    2.827569    21App    2.859866
      22App    2.928697    37Ap     2.961555    38Ap     2.986673
      23App    3.081089    39Ap     3.093517    24App    3.158850
      40Ap     3.170890    25App    3.198289    26App    3.302355
      41Ap     3.357350    42Ap     3.390329    43Ap     3.493690
      27App    3.499807    28App    3.579922    44Ap     3.594662
      45Ap     3.710427    29App    3.806511    46Ap     3.971970
      47Ap     4.022161    48Ap     4.084075    49Ap     4.127869
      30App    4.183557    31App    4.197115    50Ap     4.203799
      51Ap     4.292912    32App    4.367851    33App    4.487533
      52Ap     4.500126    53Ap     4.525121    34App    4.856758
      54Ap     4.923580    35App    5.134962    55Ap     5.165493
      56Ap     5.277548    36App    5.326625

    Beta Occupied:

       1Ap   -10.175127     2Ap   -10.166265     3Ap    -0.734640
       4Ap    -0.579724     1App   -0.439849     5Ap    -0.395959
       6Ap    -0.376818     2App   -0.349596

    Beta Virtual:

       7Ap    -0.036145     8Ap     0.101469     9Ap     0.138643
       3App    0.142277    10Ap     0.170615     4App    0.206347
      11Ap     0.252427     5App    0.441627    12Ap     0.444946
       6App    0.455694    13Ap     0.459153    14Ap     0.487112
      15Ap     0.548958     7App    0.586968    16Ap     0.592240
      17Ap     0.601991     8App    0.623473    18Ap     0.641875
      19Ap     0.644938     9App    0.656498    20Ap     0.766628
      10App    0.821245    11App    0.868811    21Ap     0.948634
      22Ap     0.986311    12App    1.033179    13App    1.078332
      23Ap     1.089586    24Ap     1.100654    25Ap     1.184009
      14App    1.228438    26Ap     1.265843    15App    1.329189
      27Ap     1.351360    28Ap     1.373930    29Ap     1.425619
      16App    1.452393    17App    1.512480    30Ap     1.534020
      31Ap     1.610958    32Ap     1.769386    33Ap     1.811449
      18App    1.955484    19App    2.053992    34Ap     2.107580
      35Ap     2.721470    36Ap     2.822663    20App    2.829494
      21App    2.875830    22App    2.931245    37Ap     2.988623
      38Ap     3.023301    23App    3.094466    39Ap     3.120618
      24App    3.176651    40Ap     3.211164    25App    3.218039
      26App    3.340425    41Ap     3.369513    42Ap     3.408878
      27App    3.519928    43Ap     3.536991    28App    3.596683
      44Ap     3.604734    45Ap     3.728769    29App    3.806753
      46Ap     3.982996    47Ap     4.030388    48Ap     4.091076
      49Ap     4.137386    30App    4.197678    31App    4.202066
      50Ap     4.213017    51Ap     4.300815    32App    4.372044
      33App    4.494408    52Ap     4.510698    53Ap     4.532487
      34App    4.858076    54Ap     4.927858    35App    5.138232
      55Ap     5.176348    56Ap     5.284653    36App    5.329163

    Final Occupation by Irrep:
             Ap   App
    DOCC [     6,    2 ]
    SOCC [     1,    0 ]

  @DF-UKS Final Energy:   -79.16616458147470

   => Energetics <=

    Nuclear Repulsion Energy =             36.8990709042675746
    One-Electron Energy =                -178.0143726428672437
    Two-Electron Energy =                  72.2281192373419714
    DFT Exchange-Correlation Energy =     -10.2789820802169984
    Empirical Dispersion Energy =           0.0000000000000000
    VV10 Nonlocal Energy =                  0.0000000000000000
    Total Energy =                        -79.1661645814747033

  UHF NO Occupations:
  HONO-2 :    2App 1.9997291
  HONO-1 :    6 Ap 1.9987028
  HONO-0 :    7 Ap 1.0000000
  LUNO+0 :    8 Ap 0.0012972
  LUNO+1 :    3App 0.0002709
  LUNO+2 :    9 Ap 0.0002498
  LUNO+3 :   10 Ap 0.0002234

Computation Completed

Properties will be evaluated at   0.000000,   0.000000,   0.000000 [a0]

Properties computed using the SCF density matrix

  Nuclear Dipole Moment: [e a0]
     X:     0.1477      Y:    -0.6576      Z:     0.0000

  Electronic Dipole Moment: [e a0]
     X:    -0.1043      Y:     0.5720      Z:     0.0000

  Dipole Moment: [e a0]
     X:     0.0433      Y:    -0.0856      Z:     0.0000     Total:     0.0960

  Dipole Moment: [D]
     X:     0.1102      Y:    -0.2177      Z:     0.0000     Total:     0.2440

*** tstop() called on n045 at Fri Nov  5 16:51:09 2021
Module time:
	user time   =      65.18 seconds =       1.09 minutes
	system time =       0.42 seconds =       0.01 minutes
	total time  =         66 seconds =       1.10 minutes
Total time:
	user time   =      65.18 seconds =       1.09 minutes
	system time =       0.42 seconds =       0.01 minutes
	total time  =         66 seconds =       1.10 minutes
Grab this energy -79.1661645814747
    Psi4 stopped on: Friday, 05 November 2021 04:51PM
    Psi4 wall time for execution: 0:01:05.64

*** Psi4 exiting successfully. Buy a developer a beer!
