                               Psi4 1.4a2.dev629

  ==> Input File <==

--------------------------------------------------------------------------
import os
memory 14 GB

molecule {
 C   -0.0030888365   -1.3542944709    0.0009615145
 C   -0.0176121381    1.4654477230   -0.0009515603
 H    1.9277953883   -2.1117007539    0.0022627067
 H   -0.9453018127   -2.1224105358    1.6737133537
 H   -0.9454055136   -2.1098746634   -1.6699615766
 H    0.1273649494    2.5133079538   -1.7525522895
 H    0.1273005395    2.5078344793    1.7465278516
units bohr
0 2
}

basis {

assign 6-31g_2dfp_

[ 6-31g_2dfp_ ]

spherical

!----------------------------------------------------------------------
! Basis Set Exchange
! Version v0.8.13
! https://www.basissetexchange.org
!----------------------------------------------------------------------
!   Basis set: 6-31G(2df,p)
! Description: 6-31G(2df,p)
!        Role: orbital
!     Version: 0  (Data from the original Basis Set Exchange)
!----------------------------------------------------------------------

****
H     0
S    3   1.00
     18.7311370              0.03349460
      2.8253937              0.23472695
      0.6401217              0.81375733
S    1   1.00
      0.1612778              1.00000000
P    1   1.00
      1.5000000              1.0000000
P    1   1.00
      0.3750000              1.0000000
****
B     0
S    6   1.00
   2068.8823000              0.0018663
    310.6495700              0.0142515
     70.6830330              0.0695516
     19.8610800              0.2325729
      6.2993048              0.4670787
      2.1270270              0.3634314
SP   3   1.00
      4.7279710             -0.1303938              0.0745976
      1.1903377             -0.1307889              0.3078467
      0.3594117              1.1309444              0.7434568
SP   1   1.00
      0.1267512              1.0000000              1.0000000
D    1   1.00
      0.8020000              1.0000000
D    1   1.00
      0.2005000              1.0000000
F    1   1.00
      0.5000000              1.0000000
****
C     0
S    6   1.00
   3047.5249000              0.0018347
    457.3695100              0.0140373
    103.9486900              0.0688426
     29.2101550              0.2321844
      9.2866630              0.4679413
      3.1639270              0.3623120
SP   3   1.00
      7.8682724             -0.1193324              0.0689991
      1.8812885             -0.1608542              0.3164240
      0.5442493              1.1434564              0.7443083
SP   1   1.00
      0.1687144              1.0000000              1.0000000
D    1   1.00
      1.2520000              1.0000000
D    1   1.00
      0.3130000              1.0000000
F    1   1.00
      0.8000000              1.0000000
****
N     0
S    6   1.00
   4173.5110000              0.0018348
    627.4579000              0.0139950
    142.9021000              0.0685870
     40.2343300              0.2322410
     12.8202100              0.4690700
      4.3904370              0.3604550
SP   3   1.00
     11.6263580             -0.1149610              0.0675800
      2.7162800             -0.1691180              0.3239070
      0.7722180              1.1458520              0.7408950
SP   1   1.00
      0.2120313              1.0000000              1.0000000
D    1   1.00
      1.8260000              1.0000000
D    1   1.00
      0.4565000              1.0000000
F    1   1.00
      1.0000000              1.0000000
****
O     0
S    6   1.00
   5484.6717000              0.0018311
    825.2349500              0.0139501
    188.0469600              0.0684451
     52.9645000              0.2327143
     16.8975700              0.4701930
      5.7996353              0.3585209
SP   3   1.00
     15.5396160             -0.1107775              0.0708743
      3.5999336             -0.1480263              0.3397528
      1.0137618              1.1307670              0.7271586
SP   1   1.00
      0.2700058              1.0000000              1.0000000
D    1   1.00
      2.5840000              1.0000000
D    1   1.00
      0.6460000              1.0000000
F    1   1.00
      1.4000000              1.0000000
****
F     0
S    6   1.00
   7001.7130900              0.0018196169
   1051.3660900              0.0139160796
    239.2856900              0.0684053245
     67.3974453              0.233185760
     21.5199573              0.471267439
      7.40310130             0.356618546
SP   3   1.00
     20.8479528             -0.108506975            0.0716287243
      4.80830834            -0.146451658            0.3459121030
      1.34406986             1.128688580            0.7224699570
SP   1   1.00
      0.358151393            1.0000000              1.0000000
D    1   1.00
      3.5000000              1.0000000
D    1   1.00
      0.8750000              1.0000000
F    1   1.00
      1.8500000              1.0000000
****
Al     0
S    6   1.00
  13983.1000000              0.00194267
   2098.7500000              0.0148599
    477.7050000              0.0728494
    134.3600000              0.2468300
     42.8709000              0.4872580
     14.5189000              0.3234960
SP   6   1.00
    239.6680000             -0.00292619             0.00460285
     57.4419000             -0.0374080              0.0331990
     18.2859000             -0.1144870              0.1362820
      6.5991400              0.1156350              0.3304760
      2.4904900              0.6125950              0.4491460
      0.9445400              0.3937990              0.2657040
SP   3   1.00
      1.2779000             -0.2276060             -0.0175130
      0.3975900              0.00144583             0.2445330
      0.1600950              1.0927900              0.8049340
SP   1   1.00
      0.0556577              1.0000000              1.0000000
D    1   1.00
      0.6500000              1.0000000
D    1   1.00
      0.1625000              1.0000000
F    1   1.00
      0.2500000              1.0000000
****
Si     0
S    6   1.00
  16115.9000000              0.00195948
   2425.5800000              0.01492880
    553.8670000              0.07284780
    156.3400000              0.24613000
     50.0683000              0.48591400
     17.0178000              0.32500200
SP   6   1.00
    292.7180000             -0.00278094             0.00443826
     69.8731000             -0.03571460             0.03266790
     22.3363000             -0.11498500             0.13472100
      8.1503900              0.09356340             0.32867800
      3.1345800              0.60301700             0.44964000
      1.2254300              0.41895900             0.26137200
SP   3   1.00
      1.7273800             -0.24463000            -0.01779510
      0.5729220              0.00431572             0.25353900
      0.2221920              1.09818000             0.80066900
SP   1   1.00
      0.0778369              1.00000000             1.00000000
D    1   1.00
      0.9000000              1.0000000
D    1   1.00
      0.2250000              1.0000000
F    1   1.00
      0.3200000              1.0000000
****
P     0
S    6   1.00
  19413.3000000              0.0018516
   2909.4200000              0.0142062
    661.3640000              0.0699995
    185.7590000              0.2400790
     59.1943000              0.4847620
     20.0310000              0.3352000
SP   6   1.00
    339.4780000             -0.00278217             0.00456462
     81.0101000             -0.0360499              0.03369360
     25.8780000             -0.1166310              0.13975500
      9.4522100              0.0968328              0.33936200
      3.6656600              0.6144180              0.45092100
      1.4674600              0.4037980              0.23858600
SP   3   1.00
      2.1562300             -0.2529230             -0.01776530
      0.7489970              0.0328517              0.27405800
      0.2831450              1.0812500              0.78542100
SP   1   1.00
      0.0998317              1.0000000              1.00000000
D    1   1.00
      1.1000000              1.0000000
D    1   1.00
      0.2750000              1.0000000
F    1   1.00
      0.4500000              1.0000000
****
S     0
S    6   1.00
  21917.1000000              0.0018690
   3301.4900000              0.0142300
    754.1460000              0.0696960
    212.7110000              0.2384870
     67.9896000              0.4833070
     23.0515000              0.3380740
SP   6   1.00
    423.7350000             -0.0023767              0.0040610
    100.7100000             -0.0316930              0.0306810
     32.1599000             -0.1133170              0.1304520
     11.8079000              0.0560900              0.3272050
      4.6311000              0.5922550              0.4528510
      1.8702500              0.4550060              0.2560420
SP   3   1.00
      2.6158400             -0.2503740             -0.0145110
      0.9221670              0.0669570              0.3102630
      0.3412870              1.0545100              0.7544830
SP   1   1.00
      0.1171670              1.0000000              1.0000000
D    1   1.00
      1.3000000              1.0000000
D    1   1.00
      0.3250000              1.0000000
F    1   1.00
      0.5500000              1.0000000
****
Cl     0
S    6   1.00
  25180.1000000              0.0018330
   3780.3500000              0.0140340
    860.4740000              0.0690970
    242.1450000              0.2374520
     77.3349000              0.4830340
     26.2470000              0.3398560
SP   6   1.00
    491.7650000             -0.0022974              0.0039894
    116.9840000             -0.0307140              0.0303180
     37.4153000             -0.1125280              0.1298800
     13.7834000              0.0450160              0.3279510
      5.4521500              0.5893530              0.4535270
      2.2258800              0.4652060              0.2521540
SP   3   1.00
      3.1864900             -0.2518300             -0.0142990
      1.1442700              0.0615890              0.3235720
      0.4203770              1.0601800              0.7435070
SP   1   1.00
      0.1426570              1.0000000              1.0000000
D    1   1.00
      1.5000000              1.0000000
D    1   1.00
      0.3750000              1.0000000
F    1   1.00
      0.7000000              1.0000000
****
}

set {
reference uhf
freeze_core true
e_convergence 10
d_convergence 10
dft_spherical_points 1202
dft_radial_points 99
}

e = energy('b3lyp')

print_out('Grab this energy {0}'.format(e))
--------------------------------------------------------------------------

    Molecular point group: c1

    Geometry (in Bohr), charge = 0, multiplicity = 2:

       Center              X                  Y                   Z               Mass
    ------------   -----------------  -----------------  -----------------  -----------------
         C           -0.004659987021    -1.354316655178     0.000957746535    12.000000000000
         C           -0.019183288621     1.465425538722    -0.000955328265    12.000000000000
         H            1.926224237779    -2.111722938178     0.002258938735     1.007825032230
         H           -0.946872963221    -2.122432720078     1.673709585735     1.007825032230
         H           -0.946976664121    -2.109896847678    -1.669965344565     1.007825032230
         H            0.125793798879     2.513285769522    -1.752556057465     1.007825032230
         H            0.125729388979     2.507812295022     1.746524083635     1.007825032230

  Charge       = 0
  Multiplicity = 2
  Basis Set: ANONYMOUS083BF7C3
    Blend: 6-31G_2DFP_
  Basis Set: (ANONYMOUS083BF7C3 AUX)
    Blend: DEF2-UNIVERSAL-JKFIT

    Orbital Energies [Eh]
    ---------------------

    Alpha Occupied:

       1A    -10.179480     2A    -10.174187     3A     -0.751534
       4A     -0.604986     5A     -0.446127     6A     -0.410842
       7A     -0.385246     8A     -0.354040     9A     -0.197376

    Alpha Virtual:

      10A      0.099058    11A      0.127975    12A      0.140821
      13A      0.165976    14A      0.203281    15A      0.247194
      16A      0.430297    17A      0.440749    18A      0.446277
      19A      0.450108    20A      0.478630    21A      0.520924
      22A      0.543795    23A      0.574131    24A      0.594092
      25A      0.618567    26A      0.634465    27A      0.639603
      28A      0.650147    29A      0.741262    30A      0.822605
      31A      0.865929    32A      0.931161    33A      0.977095
      34A      1.024743    35A      1.071642    36A      1.083313
      37A      1.085449    38A      1.180742    39A      1.220135
      40A      1.254053    41A      1.323085    42A      1.344602
      43A      1.368151    44A      1.420431    45A      1.445728
      46A      1.510040    47A      1.523765    48A      1.603354
      49A      1.765186    50A      1.806380    51A      1.951450
      52A      2.050005    53A      2.103735    54A      2.698429
      55A      2.801209    56A      2.828740    57A      2.860301
      58A      2.928930    59A      2.963173    60A      2.986470
      61A      3.079887    62A      3.093071    63A      3.159122
      64A      3.171177    65A      3.199282    66A      3.300025
      67A      3.357642    68A      3.390073    69A      3.494319
      70A      3.499408    71A      3.580624    72A      3.594835
      73A      3.712108    74A      3.807446    75A      3.973779
      76A      4.023686    77A      4.088090    78A      4.129439
      79A      4.189340    80A      4.197905    81A      4.205082
      82A      4.294778    83A      4.368393    84A      4.489586
      85A      4.502910    86A      4.527278    87A      4.864795
      88A      4.924449    89A      5.145829    90A      5.169597
      91A      5.278934    92A      5.329089

    Beta Occupied:

       1A    -10.175007     2A    -10.165536     3A     -0.734872
       4A     -0.580361     5A     -0.439961     6A     -0.396226
       7A     -0.377311     8A     -0.349602

    Beta Virtual:

       9A     -0.036069    10A      0.101703    11A      0.139106
      12A      0.142483    13A      0.170791    14A      0.206882
      15A      0.252932    16A      0.441790    17A      0.444974
      18A      0.455810    19A      0.459240    20A      0.487517
      21A      0.549079    22A      0.587509    23A      0.592408
      24A      0.602851    25A      0.623924    26A      0.642324
      27A      0.645363    28A      0.657588    29A      0.766625
      30A      0.822394    31A      0.868953    32A      0.948785
      33A      0.988279    34A      1.033292    35A      1.079647
      36A      1.088887    37A      1.101949    38A      1.184344
      39A      1.227936    40A      1.266436    41A      1.329561
      42A      1.352152    43A      1.374445    44A      1.426390
      45A      1.453221    46A      1.514630    47A      1.535015
      48A      1.614458    49A      1.771663    50A      1.812654
      51A      1.955890    52A      2.059948    53A      2.109245
      54A      2.721689    55A      2.822929    56A      2.830705
      57A      2.876414    58A      2.931468    59A      2.989951
      60A      3.023298    61A      3.093292    62A      3.120376
      63A      3.176829    64A      3.211243    65A      3.218314
      66A      3.338823    67A      3.369875    68A      3.409001
      69A      3.519314    70A      3.537266    71A      3.597233
      72A      3.605066    73A      3.730263    74A      3.807821
      75A      3.984405    76A      4.032842    77A      4.094526
      78A      4.138939    79A      4.202284    80A      4.204058
      81A      4.214334    82A      4.302751    83A      4.372629
      84A      4.496614    85A      4.513510    86A      4.534589
      87A      4.866143    88A      4.928707    89A      5.149223
      90A      5.180406    91A      5.286065    92A      5.331640

    Final Occupation by Irrep:
              A
    DOCC [     8 ]
    SOCC [     1 ]

  @DF-UKS Final Energy:   -79.16615433850609

   => Energetics <=

    Nuclear Repulsion Energy =             36.9308769024233001
    One-Electron Energy =                -178.0746605351212111
    Two-Electron Energy =                  72.2589267531557056
    DFT Exchange-Correlation Energy =     -10.2812974589638877
    Empirical Dispersion Energy =           0.0000000000000000
    VV10 Nonlocal Energy =                  0.0000000000000000
    Total Energy =                        -79.1661543385060895

  UHF NO Occupations:
  HONO-2 :    7  A 1.9997316
  HONO-1 :    8  A 1.9987082
  HONO-0 :    9  A 1.0000000
  LUNO+0 :   10  A 0.0012918
  LUNO+1 :   11  A 0.0002684
  LUNO+2 :   12  A 0.0002484
  LUNO+3 :   13  A 0.0002217

Computation Completed

Properties will be evaluated at   0.000000,   0.000000,   0.000000 [a0]

Properties computed using the SCF density matrix

  Nuclear Dipole Moment: [e a0]
     X:     0.1408      Y:    -0.6563      Z:    -0.0000

  Electronic Dipole Moment: [e a0]
     X:    -0.0987      Y:     0.5715      Z:    -0.0003

  Dipole Moment: [e a0]
     X:     0.0422      Y:    -0.0848      Z:    -0.0003     Total:     0.0947

  Dipole Moment: [D]
     X:     0.1072      Y:    -0.2155      Z:    -0.0007     Total:     0.2407

*** tstop() called on n044 at Fri Nov  5 18:30:05 2021
Module time:
	user time   =      61.87 seconds =       1.03 minutes
	system time =       0.45 seconds =       0.01 minutes
	total time  =         62 seconds =       1.03 minutes
Total time:
	user time   =      61.87 seconds =       1.03 minutes
	system time =       0.45 seconds =       0.01 minutes
	total time  =         62 seconds =       1.03 minutes
Grab this energy -79.16615433850609
    Psi4 stopped on: Friday, 05 November 2021 06:30PM
    Psi4 wall time for execution: 0:01:02.36

*** Psi4 exiting successfully. Buy a developer a beer!
