                               Psi4 1.4a2.dev629

  ==> Input File <==

--------------------------------------------------------------------------
import os
memory 14 GB

molecule {
 C   -0.0055417125   -1.3515776556   -0.0025305590
 C   -0.0194495891    1.4650935784    0.0008777786
 H    1.9279559739   -2.1125081048    0.0009627401
 H   -0.9439103701   -2.1168611510    1.6725129756
 H   -0.9444813711   -2.1170174109   -1.6716287908
 H    0.1282288289    2.5105727911   -1.7495971631
 H    0.1282508164    2.5106076849    1.7494030186
units bohr
0 2
}

basis {

assign 6-31g_2dfp_

[ 6-31g_2dfp_ ]

spherical

!----------------------------------------------------------------------
! Basis Set Exchange
! Version v0.8.13
! https://www.basissetexchange.org
!----------------------------------------------------------------------
!   Basis set: 6-31G(2df,p)
! Description: 6-31G(2df,p)
!        Role: orbital
!     Version: 0  (Data from the original Basis Set Exchange)
!----------------------------------------------------------------------

****
H     0
S    3   1.00
     18.7311370              0.03349460
      2.8253937              0.23472695
      0.6401217              0.81375733
S    1   1.00
      0.1612778              1.00000000
P    1   1.00
      1.5000000              1.0000000
P    1   1.00
      0.3750000              1.0000000
****
B     0
S    6   1.00
   2068.8823000              0.0018663
    310.6495700              0.0142515
     70.6830330              0.0695516
     19.8610800              0.2325729
      6.2993048              0.4670787
      2.1270270              0.3634314
SP   3   1.00
      4.7279710             -0.1303938              0.0745976
      1.1903377             -0.1307889              0.3078467
      0.3594117              1.1309444              0.7434568
SP   1   1.00
      0.1267512              1.0000000              1.0000000
D    1   1.00
      0.8020000              1.0000000
D    1   1.00
      0.2005000              1.0000000
F    1   1.00
      0.5000000              1.0000000
****
C     0
S    6   1.00
   3047.5249000              0.0018347
    457.3695100              0.0140373
    103.9486900              0.0688426
     29.2101550              0.2321844
      9.2866630              0.4679413
      3.1639270              0.3623120
SP   3   1.00
      7.8682724             -0.1193324              0.0689991
      1.8812885             -0.1608542              0.3164240
      0.5442493              1.1434564              0.7443083
SP   1   1.00
      0.1687144              1.0000000              1.0000000
D    1   1.00
      1.2520000              1.0000000
D    1   1.00
      0.3130000              1.0000000
F    1   1.00
      0.8000000              1.0000000
****
N     0
S    6   1.00
   4173.5110000              0.0018348
    627.4579000              0.0139950
    142.9021000              0.0685870
     40.2343300              0.2322410
     12.8202100              0.4690700
      4.3904370              0.3604550
SP   3   1.00
     11.6263580             -0.1149610              0.0675800
      2.7162800             -0.1691180              0.3239070
      0.7722180              1.1458520              0.7408950
SP   1   1.00
      0.2120313              1.0000000              1.0000000
D    1   1.00
      1.8260000              1.0000000
D    1   1.00
      0.4565000              1.0000000
F    1   1.00
      1.0000000              1.0000000
****
O     0
S    6   1.00
   5484.6717000              0.0018311
    825.2349500              0.0139501
    188.0469600              0.0684451
     52.9645000              0.2327143
     16.8975700              0.4701930
      5.7996353              0.3585209
SP   3   1.00
     15.5396160             -0.1107775              0.0708743
      3.5999336             -0.1480263              0.3397528
      1.0137618              1.1307670              0.7271586
SP   1   1.00
      0.2700058              1.0000000              1.0000000
D    1   1.00
      2.5840000              1.0000000
D    1   1.00
      0.6460000              1.0000000
F    1   1.00
      1.4000000              1.0000000
****
F     0
S    6   1.00
   7001.7130900              0.0018196169
   1051.3660900              0.0139160796
    239.2856900              0.0684053245
     67.3974453              0.233185760
     21.5199573              0.471267439
      7.40310130             0.356618546
SP   3   1.00
     20.8479528             -0.108506975            0.0716287243
      4.80830834            -0.146451658            0.3459121030
      1.34406986             1.128688580            0.7224699570
SP   1   1.00
      0.358151393            1.0000000              1.0000000
D    1   1.00
      3.5000000              1.0000000
D    1   1.00
      0.8750000              1.0000000
F    1   1.00
      1.8500000              1.0000000
****
Al     0
S    6   1.00
  13983.1000000              0.00194267
   2098.7500000              0.0148599
    477.7050000              0.0728494
    134.3600000              0.2468300
     42.8709000              0.4872580
     14.5189000              0.3234960
SP   6   1.00
    239.6680000             -0.00292619             0.00460285
     57.4419000             -0.0374080              0.0331990
     18.2859000             -0.1144870              0.1362820
      6.5991400              0.1156350              0.3304760
      2.4904900              0.6125950              0.4491460
      0.9445400              0.3937990              0.2657040
SP   3   1.00
      1.2779000             -0.2276060             -0.0175130
      0.3975900              0.00144583             0.2445330
      0.1600950              1.0927900              0.8049340
SP   1   1.00
      0.0556577              1.0000000              1.0000000
D    1   1.00
      0.6500000              1.0000000
D    1   1.00
      0.1625000              1.0000000
F    1   1.00
      0.2500000              1.0000000
****
Si     0
S    6   1.00
  16115.9000000              0.00195948
   2425.5800000              0.01492880
    553.8670000              0.07284780
    156.3400000              0.24613000
     50.0683000              0.48591400
     17.0178000              0.32500200
SP   6   1.00
    292.7180000             -0.00278094             0.00443826
     69.8731000             -0.03571460             0.03266790
     22.3363000             -0.11498500             0.13472100
      8.1503900              0.09356340             0.32867800
      3.1345800              0.60301700             0.44964000
      1.2254300              0.41895900             0.26137200
SP   3   1.00
      1.7273800             -0.24463000            -0.01779510
      0.5729220              0.00431572             0.25353900
      0.2221920              1.09818000             0.80066900
SP   1   1.00
      0.0778369              1.00000000             1.00000000
D    1   1.00
      0.9000000              1.0000000
D    1   1.00
      0.2250000              1.0000000
F    1   1.00
      0.3200000              1.0000000
****
P     0
S    6   1.00
  19413.3000000              0.0018516
   2909.4200000              0.0142062
    661.3640000              0.0699995
    185.7590000              0.2400790
     59.1943000              0.4847620
     20.0310000              0.3352000
SP   6   1.00
    339.4780000             -0.00278217             0.00456462
     81.0101000             -0.0360499              0.03369360
     25.8780000             -0.1166310              0.13975500
      9.4522100              0.0968328              0.33936200
      3.6656600              0.6144180              0.45092100
      1.4674600              0.4037980              0.23858600
SP   3   1.00
      2.1562300             -0.2529230             -0.01776530
      0.7489970              0.0328517              0.27405800
      0.2831450              1.0812500              0.78542100
SP   1   1.00
      0.0998317              1.0000000              1.00000000
D    1   1.00
      1.1000000              1.0000000
D    1   1.00
      0.2750000              1.0000000
F    1   1.00
      0.4500000              1.0000000
****
S     0
S    6   1.00
  21917.1000000              0.0018690
   3301.4900000              0.0142300
    754.1460000              0.0696960
    212.7110000              0.2384870
     67.9896000              0.4833070
     23.0515000              0.3380740
SP   6   1.00
    423.7350000             -0.0023767              0.0040610
    100.7100000             -0.0316930              0.0306810
     32.1599000             -0.1133170              0.1304520
     11.8079000              0.0560900              0.3272050
      4.6311000              0.5922550              0.4528510
      1.8702500              0.4550060              0.2560420
SP   3   1.00
      2.6158400             -0.2503740             -0.0145110
      0.9221670              0.0669570              0.3102630
      0.3412870              1.0545100              0.7544830
SP   1   1.00
      0.1171670              1.0000000              1.0000000
D    1   1.00
      1.3000000              1.0000000
D    1   1.00
      0.3250000              1.0000000
F    1   1.00
      0.5500000              1.0000000
****
Cl     0
S    6   1.00
  25180.1000000              0.0018330
   3780.3500000              0.0140340
    860.4740000              0.0690970
    242.1450000              0.2374520
     77.3349000              0.4830340
     26.2470000              0.3398560
SP   6   1.00
    491.7650000             -0.0022974              0.0039894
    116.9840000             -0.0307140              0.0303180
     37.4153000             -0.1125280              0.1298800
     13.7834000              0.0450160              0.3279510
      5.4521500              0.5893530              0.4535270
      2.2258800              0.4652060              0.2521540
SP   3   1.00
      3.1864900             -0.2518300             -0.0142990
      1.1442700              0.0615890              0.3235720
      0.4203770              1.0601800              0.7435070
SP   1   1.00
      0.1426570              1.0000000              1.0000000
D    1   1.00
      1.5000000              1.0000000
D    1   1.00
      0.3750000              1.0000000
F    1   1.00
      0.7000000              1.0000000
****
}

set {
reference uhf
freeze_core true
e_convergence 10
d_convergence 10
dft_spherical_points 1202
dft_radial_points 99
}

e = energy('b3lyp')

print_out('Grab this energy {0}'.format(e))
--------------------------------------------------------------------------

    Molecular point group: c1

    Geometry (in Bohr), charge = 0, multiplicity = 2:

       Center              X                  Y                   Z               Mass
    ------------   -----------------  -----------------  -----------------  -----------------
         C           -0.005488846296    -1.352494181205    -0.001904932324    12.000000000000
         C           -0.019396722896     1.464177052795     0.001503405276    12.000000000000
         H            1.928008840104    -2.113424630405     0.001588366776     1.007825032230
         H           -0.943857503896    -2.117777676605     1.673138602276     1.007825032230
         H           -0.944428504896    -2.117933936505    -1.671003164124     1.007825032230
         H            0.128281695104     2.509656265495    -1.748971536424     1.007825032230
         H            0.128303682604     2.509691159295     1.750028645276     1.007825032230

  Charge       = 0
  Multiplicity = 2
  Basis Set: ANONYMOUS7EE12C24
    Blend: 6-31G_2DFP_
  Basis Set: (ANONYMOUS7EE12C24 AUX)
    Blend: DEF2-UNIVERSAL-JKFIT

    Orbital Energies [Eh]
    ---------------------

    Alpha Occupied:

       1A    -10.179463     2A    -10.174274     3A     -0.751750
       4A     -0.604917     5A     -0.446252     6A     -0.410408
       7A     -0.385717     8A     -0.353992     9A     -0.197304

    Alpha Virtual:

      10A      0.099016    11A      0.127943    12A      0.140755
      13A      0.165630    14A      0.203309    15A      0.247790
      16A      0.430506    17A      0.440776    18A      0.445986
      19A      0.449829    20A      0.478697    21A      0.520878
      22A      0.543592    23A      0.574189    24A      0.594309
      25A      0.618463    26A      0.633973    27A      0.639750
      28A      0.650051    29A      0.741206    30A      0.822693
      31A      0.865973    32A      0.931141    33A      0.976992
      34A      1.024637    35A      1.071352    36A      1.083542
      37A      1.086324    38A      1.180081    39A      1.220084
      40A      1.254127    41A      1.323383    42A      1.345394
      43A      1.368090    44A      1.419401    45A      1.445130
      46A      1.509920    47A      1.524518    48A      1.603592
      49A      1.763994    50A      1.806097    51A      1.952777
      52A      2.050380    53A      2.103451    54A      2.698359
      55A      2.801518    56A      2.828760    57A      2.860505
      58A      2.928597    59A      2.963277    60A      2.986138
      61A      3.079872    62A      3.093345    63A      3.158549
      64A      3.171153    65A      3.198884    66A      3.300441
      67A      3.358568    68A      3.390184    69A      3.493555
      70A      3.500238    71A      3.581673    72A      3.592840
      73A      3.713620    74A      3.806260    75A      3.973763
      76A      4.024436    77A      4.088675    78A      4.130058
      79A      4.189193    80A      4.199298    81A      4.206129
      82A      4.296181    83A      4.365409    84A      4.489850
      85A      4.501658    86A      4.527333    87A      4.864771
      88A      4.921763    89A      5.146612    90A      5.168528
      91A      5.278907    92A      5.329292

    Beta Occupied:

       1A    -10.175098     2A    -10.165527     3A     -0.735066
       4A     -0.580338     5A     -0.440094     6A     -0.395663
       7A     -0.377788     8A     -0.349546

    Beta Virtual:

       9A     -0.036159    10A      0.101662    11A      0.139110
      12A      0.142380    13A      0.170515    14A      0.206911
      15A      0.253511    16A      0.441851    17A      0.444883
      18A      0.455529    19A      0.459266    20A      0.487619
      21A      0.549095    22A      0.587625    23A      0.592065
      24A      0.602995    25A      0.623789    26A      0.641919
      27A      0.645488    28A      0.657489    29A      0.766535
      30A      0.822491    31A      0.869034    32A      0.948838
      33A      0.988158    34A      1.033257    35A      1.079325
      36A      1.089613    37A      1.102240    38A      1.183772
      39A      1.227763    40A      1.266480    41A      1.330013
      42A      1.352894    43A      1.374434    44A      1.425414
      45A      1.452613    46A      1.514521    47A      1.535760
      48A      1.614722    49A      1.770518    50A      1.812408
      51A      1.957209    52A      2.060355    53A      2.108995
      54A      2.721569    55A      2.823339    56A      2.830604
      57A      2.876557    58A      2.931147    59A      2.990175
      60A      3.022883    61A      3.093293    62A      3.120569
      63A      3.176446    64A      3.211283    65A      3.217698
      66A      3.339139    67A      3.370753    68A      3.408979
      69A      3.519981    70A      3.536507    71A      3.598502
      72A      3.603100    73A      3.731773    74A      3.806604
      75A      3.984702    76A      4.033228    77A      4.095153
      78A      4.139576    79A      4.203398    80A      4.204306
      81A      4.215547    82A      4.304137    83A      4.369701
      84A      4.496815    85A      4.512320    86A      4.534674
      87A      4.866132    88A      4.926097    89A      5.149928
      90A      5.179429    91A      5.286066    92A      5.331849

    Final Occupation by Irrep:
              A
    DOCC [     8 ]
    SOCC [     1 ]

  @DF-UKS Final Energy:   -79.16618392500710

   => Energetics <=

    Nuclear Repulsion Energy =             36.9402296087747146
    One-Electron Energy =                -178.0930236515135903
    Two-Electron Energy =                  72.2677713552684793
    DFT Exchange-Correlation Energy =     -10.2811612375366970
    Empirical Dispersion Energy =           0.0000000000000000
    VV10 Nonlocal Energy =                  0.0000000000000000
    Total Energy =                        -79.1661839250071040

  UHF NO Occupations:
  HONO-2 :    7  A 1.9997317
  HONO-1 :    8  A 1.9987118
  HONO-0 :    9  A 1.0000000
  LUNO+0 :   10  A 0.0012882
  LUNO+1 :   11  A 0.0002683
  LUNO+2 :   12  A 0.0002531
  LUNO+3 :   13  A 0.0002218

Computation Completed

Properties will be evaluated at   0.000000,   0.000000,   0.000000 [a0]

Properties computed using the SCF density matrix

  Nuclear Dipole Moment: [e a0]
     X:     0.1470      Y:    -0.6597      Z:     0.0024

  Electronic Dipole Moment: [e a0]
     X:    -0.1044      Y:     0.5747      Z:    -0.0024

  Dipole Moment: [e a0]
     X:     0.0426      Y:    -0.0850      Z:     0.0000     Total:     0.0950

  Dipole Moment: [D]
     X:     0.1082      Y:    -0.2159      Z:     0.0000     Total:     0.2415

*** tstop() called on n044 at Fri Nov  5 17:04:51 2021
Module time:
	user time   =      61.91 seconds =       1.03 minutes
	system time =       0.45 seconds =       0.01 minutes
	total time  =         63 seconds =       1.05 minutes
Total time:
	user time   =      61.91 seconds =       1.03 minutes
	system time =       0.45 seconds =       0.01 minutes
	total time  =         63 seconds =       1.05 minutes
Grab this energy -79.1661839250071
    Psi4 stopped on: Friday, 05 November 2021 05:04PM
    Psi4 wall time for execution: 0:01:02.39

*** Psi4 exiting successfully. Buy a developer a beer!
