                               Psi4 1.4a2.dev629

  ==> Input File <==

--------------------------------------------------------------------------
import os
memory 14 GB

molecule {
 C   -0.0021011391   -1.3542202464    0.0000000000
 C   -0.0185688760    1.4652951808   -0.0000000000
 H    1.9286908071   -2.1200915950    0.0000000000
 H   -0.9434733644   -2.1118234161    1.6722846926
 H   -0.9434733644   -2.1118234161   -1.6722846926
 H    0.1249892566    2.5104866125   -1.7490319358
 H    0.1249892566    2.5104866125    1.7490319358
units bohr
0 2
}

basis {

assign 6-31g_2dfp_

[ 6-31g_2dfp_ ]

spherical

!----------------------------------------------------------------------
! Basis Set Exchange
! Version v0.8.13
! https://www.basissetexchange.org
!----------------------------------------------------------------------
!   Basis set: 6-31G(2df,p)
! Description: 6-31G(2df,p)
!        Role: orbital
!     Version: 0  (Data from the original Basis Set Exchange)
!----------------------------------------------------------------------

****
H     0
S    3   1.00
     18.7311370              0.03349460
      2.8253937              0.23472695
      0.6401217              0.81375733
S    1   1.00
      0.1612778              1.00000000
P    1   1.00
      1.5000000              1.0000000
P    1   1.00
      0.3750000              1.0000000
****
B     0
S    6   1.00
   2068.8823000              0.0018663
    310.6495700              0.0142515
     70.6830330              0.0695516
     19.8610800              0.2325729
      6.2993048              0.4670787
      2.1270270              0.3634314
SP   3   1.00
      4.7279710             -0.1303938              0.0745976
      1.1903377             -0.1307889              0.3078467
      0.3594117              1.1309444              0.7434568
SP   1   1.00
      0.1267512              1.0000000              1.0000000
D    1   1.00
      0.8020000              1.0000000
D    1   1.00
      0.2005000              1.0000000
F    1   1.00
      0.5000000              1.0000000
****
C     0
S    6   1.00
   3047.5249000              0.0018347
    457.3695100              0.0140373
    103.9486900              0.0688426
     29.2101550              0.2321844
      9.2866630              0.4679413
      3.1639270              0.3623120
SP   3   1.00
      7.8682724             -0.1193324              0.0689991
      1.8812885             -0.1608542              0.3164240
      0.5442493              1.1434564              0.7443083
SP   1   1.00
      0.1687144              1.0000000              1.0000000
D    1   1.00
      1.2520000              1.0000000
D    1   1.00
      0.3130000              1.0000000
F    1   1.00
      0.8000000              1.0000000
****
N     0
S    6   1.00
   4173.5110000              0.0018348
    627.4579000              0.0139950
    142.9021000              0.0685870
     40.2343300              0.2322410
     12.8202100              0.4690700
      4.3904370              0.3604550
SP   3   1.00
     11.6263580             -0.1149610              0.0675800
      2.7162800             -0.1691180              0.3239070
      0.7722180              1.1458520              0.7408950
SP   1   1.00
      0.2120313              1.0000000              1.0000000
D    1   1.00
      1.8260000              1.0000000
D    1   1.00
      0.4565000              1.0000000
F    1   1.00
      1.0000000              1.0000000
****
O     0
S    6   1.00
   5484.6717000              0.0018311
    825.2349500              0.0139501
    188.0469600              0.0684451
     52.9645000              0.2327143
     16.8975700              0.4701930
      5.7996353              0.3585209
SP   3   1.00
     15.5396160             -0.1107775              0.0708743
      3.5999336             -0.1480263              0.3397528
      1.0137618              1.1307670              0.7271586
SP   1   1.00
      0.2700058              1.0000000              1.0000000
D    1   1.00
      2.5840000              1.0000000
D    1   1.00
      0.6460000              1.0000000
F    1   1.00
      1.4000000              1.0000000
****
F     0
S    6   1.00
   7001.7130900              0.0018196169
   1051.3660900              0.0139160796
    239.2856900              0.0684053245
     67.3974453              0.233185760
     21.5199573              0.471267439
      7.40310130             0.356618546
SP   3   1.00
     20.8479528             -0.108506975            0.0716287243
      4.80830834            -0.146451658            0.3459121030
      1.34406986             1.128688580            0.7224699570
SP   1   1.00
      0.358151393            1.0000000              1.0000000
D    1   1.00
      3.5000000              1.0000000
D    1   1.00
      0.8750000              1.0000000
F    1   1.00
      1.8500000              1.0000000
****
Al     0
S    6   1.00
  13983.1000000              0.00194267
   2098.7500000              0.0148599
    477.7050000              0.0728494
    134.3600000              0.2468300
     42.8709000              0.4872580
     14.5189000              0.3234960
SP   6   1.00
    239.6680000             -0.00292619             0.00460285
     57.4419000             -0.0374080              0.0331990
     18.2859000             -0.1144870              0.1362820
      6.5991400              0.1156350              0.3304760
      2.4904900              0.6125950              0.4491460
      0.9445400              0.3937990              0.2657040
SP   3   1.00
      1.2779000             -0.2276060             -0.0175130
      0.3975900              0.00144583             0.2445330
      0.1600950              1.0927900              0.8049340
SP   1   1.00
      0.0556577              1.0000000              1.0000000
D    1   1.00
      0.6500000              1.0000000
D    1   1.00
      0.1625000              1.0000000
F    1   1.00
      0.2500000              1.0000000
****
Si     0
S    6   1.00
  16115.9000000              0.00195948
   2425.5800000              0.01492880
    553.8670000              0.07284780
    156.3400000              0.24613000
     50.0683000              0.48591400
     17.0178000              0.32500200
SP   6   1.00
    292.7180000             -0.00278094             0.00443826
     69.8731000             -0.03571460             0.03266790
     22.3363000             -0.11498500             0.13472100
      8.1503900              0.09356340             0.32867800
      3.1345800              0.60301700             0.44964000
      1.2254300              0.41895900             0.26137200
SP   3   1.00
      1.7273800             -0.24463000            -0.01779510
      0.5729220              0.00431572             0.25353900
      0.2221920              1.09818000             0.80066900
SP   1   1.00
      0.0778369              1.00000000             1.00000000
D    1   1.00
      0.9000000              1.0000000
D    1   1.00
      0.2250000              1.0000000
F    1   1.00
      0.3200000              1.0000000
****
P     0
S    6   1.00
  19413.3000000              0.0018516
   2909.4200000              0.0142062
    661.3640000              0.0699995
    185.7590000              0.2400790
     59.1943000              0.4847620
     20.0310000              0.3352000
SP   6   1.00
    339.4780000             -0.00278217             0.00456462
     81.0101000             -0.0360499              0.03369360
     25.8780000             -0.1166310              0.13975500
      9.4522100              0.0968328              0.33936200
      3.6656600              0.6144180              0.45092100
      1.4674600              0.4037980              0.23858600
SP   3   1.00
      2.1562300             -0.2529230             -0.01776530
      0.7489970              0.0328517              0.27405800
      0.2831450              1.0812500              0.78542100
SP   1   1.00
      0.0998317              1.0000000              1.00000000
D    1   1.00
      1.1000000              1.0000000
D    1   1.00
      0.2750000              1.0000000
F    1   1.00
      0.4500000              1.0000000
****
S     0
S    6   1.00
  21917.1000000              0.0018690
   3301.4900000              0.0142300
    754.1460000              0.0696960
    212.7110000              0.2384870
     67.9896000              0.4833070
     23.0515000              0.3380740
SP   6   1.00
    423.7350000             -0.0023767              0.0040610
    100.7100000             -0.0316930              0.0306810
     32.1599000             -0.1133170              0.1304520
     11.8079000              0.0560900              0.3272050
      4.6311000              0.5922550              0.4528510
      1.8702500              0.4550060              0.2560420
SP   3   1.00
      2.6158400             -0.2503740             -0.0145110
      0.9221670              0.0669570              0.3102630
      0.3412870              1.0545100              0.7544830
SP   1   1.00
      0.1171670              1.0000000              1.0000000
D    1   1.00
      1.3000000              1.0000000
D    1   1.00
      0.3250000              1.0000000
F    1   1.00
      0.5500000              1.0000000
****
Cl     0
S    6   1.00
  25180.1000000              0.0018330
   3780.3500000              0.0140340
    860.4740000              0.0690970
    242.1450000              0.2374520
     77.3349000              0.4830340
     26.2470000              0.3398560
SP   6   1.00
    491.7650000             -0.0022974              0.0039894
    116.9840000             -0.0307140              0.0303180
     37.4153000             -0.1125280              0.1298800
     13.7834000              0.0450160              0.3279510
      5.4521500              0.5893530              0.4535270
      2.2258800              0.4652060              0.2521540
SP   3   1.00
      3.1864900             -0.2518300             -0.0142990
      1.1442700              0.0615890              0.3235720
      0.4203770              1.0601800              0.7435070
SP   1   1.00
      0.1426570              1.0000000              1.0000000
D    1   1.00
      1.5000000              1.0000000
D    1   1.00
      0.3750000              1.0000000
F    1   1.00
      0.7000000              1.0000000
****
}

set {
reference uhf
freeze_core true
e_convergence 10
d_convergence 10
dft_spherical_points 1202
dft_radial_points 99
}

e = energy('b3lyp')

print_out('Grab this energy {0}'.format(e))
--------------------------------------------------------------------------

    Molecular point group: cs

    Geometry (in Bohr), charge = 0, multiplicity = 2:

       Center              X                  Y                   Z               Mass
    ------------   -----------------  -----------------  -----------------  -----------------
         C           -0.003684008719    -1.354212785096     0.000000000000    12.000000000000
         C           -0.020151745619     1.465302642104     0.000000000000    12.000000000000
         H            1.927107937481    -2.120084133696     0.000000000000     1.007825032230
         H           -0.945056234019    -2.111815954796     1.672284692600     1.007825032230
         H           -0.945056234019    -2.111815954796    -1.672284692600     1.007825032230
         H            0.123406386981     2.510494073804    -1.749031935800     1.007825032230
         H            0.123406386981     2.510494073804     1.749031935800     1.007825032230

  Charge       = 0
  Multiplicity = 2
  Basis Set: ANONYMOUSE07D7A5E
    Blend: 6-31G_2DFP_
  Basis Set: (ANONYMOUSE07D7A5E AUX)
    Blend: DEF2-UNIVERSAL-JKFIT

    Orbital Energies [Eh]
    ---------------------

    Alpha Occupied:

       1Ap   -10.179447     2Ap   -10.174157     3Ap    -0.751568
       4Ap    -0.605030     1App   -0.446399     5Ap    -0.410495
       6Ap    -0.385204     2App   -0.354268     7Ap    -0.197413

    Alpha Virtual:

       8Ap     0.099060     9Ap     0.127963     3App    0.141046
      10Ap     0.165969     4App    0.203377    11Ap     0.247214
      12Ap     0.430296     5App    0.440740    13Ap     0.446326
       6App    0.449739    14Ap     0.478972    15Ap     0.520932
      16Ap     0.543494     7App    0.574053    17Ap     0.594222
       8App    0.618880    18Ap     0.634378    19Ap     0.639700
       9App    0.650480    20Ap     0.741404    10App    0.822974
      11App    0.865918    21Ap     0.930316    22Ap     0.977737
      12App    1.023925    13App    1.072115    23Ap     1.083537
      24Ap     1.085539    25Ap     1.180066    14App    1.220158
      26Ap     1.255382    15App    1.323550    27Ap     1.343936
      28Ap     1.367835    29Ap     1.419574    16App    1.446524
      17App    1.510265    30Ap     1.523973    31Ap     1.603752
      32Ap     1.764515    33Ap     1.807220    18App    1.951992
      19App    2.050492    34Ap     2.103344    35Ap     2.697602
      36Ap     2.801723    20App    2.829142    21App    2.860466
      22App    2.928849    37Ap     2.963325    38Ap     2.986450
      23App    3.079925    39Ap     3.092050    24App    3.158464
      40Ap     3.171905    25App    3.199232    26App    3.300012
      41Ap     3.359599    42Ap     3.388830    43Ap     3.494441
      27App    3.499669    28App    3.581585    44Ap     3.595506
      45Ap     3.712182    29App    3.808336    46Ap     3.972806
      47Ap     4.023327    48Ap     4.088691    49Ap     4.129061
      30App    4.189253    31App    4.198258    50Ap     4.204484
      51Ap     4.294895    32App    4.368795    33App    4.491180
      52Ap     4.500550    53Ap     4.529444    34App    4.865479
      54Ap     4.924412    35App    5.147066    55Ap     5.169185
      56Ap     5.278885    36App    5.330333

    Beta Occupied:

       1Ap   -10.174981     2Ap   -10.165508     3Ap    -0.734908
       4Ap    -0.580422     1App   -0.440247     5Ap    -0.395818
       6Ap    -0.377298     2App   -0.349808

    Beta Virtual:

       7Ap    -0.036184     8Ap     0.101708     9Ap     0.139124
       3App    0.142668    10Ap     0.170846     4App    0.206969
      11Ap     0.252941     5App    0.441802    12Ap     0.445055
       6App    0.455421    13Ap     0.459199    14Ap     0.487936
      15Ap     0.548807     7App    0.587576    16Ap     0.592303
      17Ap     0.602908     8App    0.624180    18Ap     0.642295
      19Ap     0.645465     9App    0.657909    20Ap     0.766779
      10App    0.822759    11App    0.868959    21Ap     0.947979
      22Ap     0.988979    12App    1.032350    13App    1.080238
      23Ap     1.088689    24Ap     1.102413    25Ap     1.183586
      14App    1.227975    26Ap     1.267828    15App    1.330128
      27Ap     1.351457    28Ap     1.374098    29Ap     1.425519
      16App    1.453958    17App    1.514859    30Ap     1.535221
      31Ap     1.614909    32Ap     1.771055    33Ap     1.813455
      18App    1.956437    19App    2.060422    34Ap     2.108859
      35Ap     2.720835    36Ap     2.823508    20App    2.831062
      21App    2.876510    22App    2.931378    37Ap     2.989923
      38Ap     3.023456    23App    3.093323    39Ap     3.119515
      24App    3.176101    40Ap     3.212046    25App    3.218105
      26App    3.338803    41Ap     3.370925    42Ap     3.408425
      27App    3.520161    43Ap     3.537519    28App    3.597818
      44Ap     3.605623    45Ap     3.730373    29App    3.808661
      46Ap     3.983949    47Ap     4.031889    48Ap     4.095110
      49Ap     4.138582    30App    4.202457    31App    4.204205
      50Ap     4.213793    51Ap     4.302801    32App    4.373014
      33App    4.498246    52Ap     4.511223    53Ap     4.536806
      34App    4.866817    54Ap     4.928720    35App    5.150368
      55Ap     5.180076    56Ap     5.285997    36App    5.332888

    Final Occupation by Irrep:
             Ap   App
    DOCC [     6,    2 ]
    SOCC [     1,    0 ]

  @DF-UKS Final Energy:   -79.16616518697140

   => Energetics <=

    Nuclear Repulsion Energy =             36.9344216531336969
    One-Electron Energy =                -178.0813365517126101
    Two-Electron Energy =                  72.2622684284955596
    DFT Exchange-Correlation Energy =     -10.2815187168880300
    Empirical Dispersion Energy =           0.0000000000000000
    VV10 Nonlocal Energy =                  0.0000000000000000
    Total Energy =                        -79.1661651869713978

  UHF NO Occupations:
  HONO-2 :    2App 1.9997320
  HONO-1 :    6 Ap 1.9987100
  HONO-0 :    7 Ap 1.0000000
  LUNO+0 :    8 Ap 0.0012900
  LUNO+1 :    3App 0.0002680
  LUNO+2 :    9 Ap 0.0002506
  LUNO+3 :   10 Ap 0.0002225

Computation Completed

Properties will be evaluated at   0.000000,   0.000000,   0.000000 [a0]

Properties computed using the SCF density matrix

  Nuclear Dipole Moment: [e a0]
     X:     0.1408      Y:    -0.6562      Z:     0.0000

  Electronic Dipole Moment: [e a0]
     X:    -0.0995      Y:     0.5716      Z:     0.0000

  Dipole Moment: [e a0]
     X:     0.0413      Y:    -0.0846      Z:     0.0000     Total:     0.0941

  Dipole Moment: [D]
     X:     0.1051      Y:    -0.2149      Z:     0.0000     Total:     0.2392

*** tstop() called on n044 at Fri Nov  5 18:32:43 2021
Module time:
	user time   =      65.19 seconds =       1.09 minutes
	system time =       0.46 seconds =       0.01 minutes
	total time  =         65 seconds =       1.08 minutes
Total time:
	user time   =      65.19 seconds =       1.09 minutes
	system time =       0.46 seconds =       0.01 minutes
	total time  =         65 seconds =       1.08 minutes
Grab this energy -79.1661651869714
    Psi4 stopped on: Friday, 05 November 2021 06:32PM
    Psi4 wall time for execution: 0:01:05.70

*** Psi4 exiting successfully. Buy a developer a beer!
