                               Psi4 1.4a2.dev629

  ==> Input File <==

--------------------------------------------------------------------------
import os
memory 14 GB

molecule {
 C   -0.0054808905   -1.3585689726    0.0017044850
 C   -0.0193321061    1.4693538521    0.0001290118
 H    1.9286919736   -2.1172286235    0.0046299107
 H   -0.9406663407   -2.1208923272    1.6698185567
 H   -0.9487663782   -2.1216080552   -1.6758596604
 H    0.1280114168    2.5190184400   -1.7487181791
 H    0.1285949015    2.5182354186    1.7482958753
units bohr
0 2
}

basis {

assign 6-31g_2dfp_

[ 6-31g_2dfp_ ]

spherical

!----------------------------------------------------------------------
! Basis Set Exchange
! Version v0.8.13
! https://www.basissetexchange.org
!----------------------------------------------------------------------
!   Basis set: 6-31G(2df,p)
! Description: 6-31G(2df,p)
!        Role: orbital
!     Version: 0  (Data from the original Basis Set Exchange)
!----------------------------------------------------------------------

****
H     0
S    3   1.00
     18.7311370              0.03349460
      2.8253937              0.23472695
      0.6401217              0.81375733
S    1   1.00
      0.1612778              1.00000000
P    1   1.00
      1.5000000              1.0000000
P    1   1.00
      0.3750000              1.0000000
****
B     0
S    6   1.00
   2068.8823000              0.0018663
    310.6495700              0.0142515
     70.6830330              0.0695516
     19.8610800              0.2325729
      6.2993048              0.4670787
      2.1270270              0.3634314
SP   3   1.00
      4.7279710             -0.1303938              0.0745976
      1.1903377             -0.1307889              0.3078467
      0.3594117              1.1309444              0.7434568
SP   1   1.00
      0.1267512              1.0000000              1.0000000
D    1   1.00
      0.8020000              1.0000000
D    1   1.00
      0.2005000              1.0000000
F    1   1.00
      0.5000000              1.0000000
****
C     0
S    6   1.00
   3047.5249000              0.0018347
    457.3695100              0.0140373
    103.9486900              0.0688426
     29.2101550              0.2321844
      9.2866630              0.4679413
      3.1639270              0.3623120
SP   3   1.00
      7.8682724             -0.1193324              0.0689991
      1.8812885             -0.1608542              0.3164240
      0.5442493              1.1434564              0.7443083
SP   1   1.00
      0.1687144              1.0000000              1.0000000
D    1   1.00
      1.2520000              1.0000000
D    1   1.00
      0.3130000              1.0000000
F    1   1.00
      0.8000000              1.0000000
****
N     0
S    6   1.00
   4173.5110000              0.0018348
    627.4579000              0.0139950
    142.9021000              0.0685870
     40.2343300              0.2322410
     12.8202100              0.4690700
      4.3904370              0.3604550
SP   3   1.00
     11.6263580             -0.1149610              0.0675800
      2.7162800             -0.1691180              0.3239070
      0.7722180              1.1458520              0.7408950
SP   1   1.00
      0.2120313              1.0000000              1.0000000
D    1   1.00
      1.8260000              1.0000000
D    1   1.00
      0.4565000              1.0000000
F    1   1.00
      1.0000000              1.0000000
****
O     0
S    6   1.00
   5484.6717000              0.0018311
    825.2349500              0.0139501
    188.0469600              0.0684451
     52.9645000              0.2327143
     16.8975700              0.4701930
      5.7996353              0.3585209
SP   3   1.00
     15.5396160             -0.1107775              0.0708743
      3.5999336             -0.1480263              0.3397528
      1.0137618              1.1307670              0.7271586
SP   1   1.00
      0.2700058              1.0000000              1.0000000
D    1   1.00
      2.5840000              1.0000000
D    1   1.00
      0.6460000              1.0000000
F    1   1.00
      1.4000000              1.0000000
****
F     0
S    6   1.00
   7001.7130900              0.0018196169
   1051.3660900              0.0139160796
    239.2856900              0.0684053245
     67.3974453              0.233185760
     21.5199573              0.471267439
      7.40310130             0.356618546
SP   3   1.00
     20.8479528             -0.108506975            0.0716287243
      4.80830834            -0.146451658            0.3459121030
      1.34406986             1.128688580            0.7224699570
SP   1   1.00
      0.358151393            1.0000000              1.0000000
D    1   1.00
      3.5000000              1.0000000
D    1   1.00
      0.8750000              1.0000000
F    1   1.00
      1.8500000              1.0000000
****
Al     0
S    6   1.00
  13983.1000000              0.00194267
   2098.7500000              0.0148599
    477.7050000              0.0728494
    134.3600000              0.2468300
     42.8709000              0.4872580
     14.5189000              0.3234960
SP   6   1.00
    239.6680000             -0.00292619             0.00460285
     57.4419000             -0.0374080              0.0331990
     18.2859000             -0.1144870              0.1362820
      6.5991400              0.1156350              0.3304760
      2.4904900              0.6125950              0.4491460
      0.9445400              0.3937990              0.2657040
SP   3   1.00
      1.2779000             -0.2276060             -0.0175130
      0.3975900              0.00144583             0.2445330
      0.1600950              1.0927900              0.8049340
SP   1   1.00
      0.0556577              1.0000000              1.0000000
D    1   1.00
      0.6500000              1.0000000
D    1   1.00
      0.1625000              1.0000000
F    1   1.00
      0.2500000              1.0000000
****
Si     0
S    6   1.00
  16115.9000000              0.00195948
   2425.5800000              0.01492880
    553.8670000              0.07284780
    156.3400000              0.24613000
     50.0683000              0.48591400
     17.0178000              0.32500200
SP   6   1.00
    292.7180000             -0.00278094             0.00443826
     69.8731000             -0.03571460             0.03266790
     22.3363000             -0.11498500             0.13472100
      8.1503900              0.09356340             0.32867800
      3.1345800              0.60301700             0.44964000
      1.2254300              0.41895900             0.26137200
SP   3   1.00
      1.7273800             -0.24463000            -0.01779510
      0.5729220              0.00431572             0.25353900
      0.2221920              1.09818000             0.80066900
SP   1   1.00
      0.0778369              1.00000000             1.00000000
D    1   1.00
      0.9000000              1.0000000
D    1   1.00
      0.2250000              1.0000000
F    1   1.00
      0.3200000              1.0000000
****
P     0
S    6   1.00
  19413.3000000              0.0018516
   2909.4200000              0.0142062
    661.3640000              0.0699995
    185.7590000              0.2400790
     59.1943000              0.4847620
     20.0310000              0.3352000
SP   6   1.00
    339.4780000             -0.00278217             0.00456462
     81.0101000             -0.0360499              0.03369360
     25.8780000             -0.1166310              0.13975500
      9.4522100              0.0968328              0.33936200
      3.6656600              0.6144180              0.45092100
      1.4674600              0.4037980              0.23858600
SP   3   1.00
      2.1562300             -0.2529230             -0.01776530
      0.7489970              0.0328517              0.27405800
      0.2831450              1.0812500              0.78542100
SP   1   1.00
      0.0998317              1.0000000              1.00000000
D    1   1.00
      1.1000000              1.0000000
D    1   1.00
      0.2750000              1.0000000
F    1   1.00
      0.4500000              1.0000000
****
S     0
S    6   1.00
  21917.1000000              0.0018690
   3301.4900000              0.0142300
    754.1460000              0.0696960
    212.7110000              0.2384870
     67.9896000              0.4833070
     23.0515000              0.3380740
SP   6   1.00
    423.7350000             -0.0023767              0.0040610
    100.7100000             -0.0316930              0.0306810
     32.1599000             -0.1133170              0.1304520
     11.8079000              0.0560900              0.3272050
      4.6311000              0.5922550              0.4528510
      1.8702500              0.4550060              0.2560420
SP   3   1.00
      2.6158400             -0.2503740             -0.0145110
      0.9221670              0.0669570              0.3102630
      0.3412870              1.0545100              0.7544830
SP   1   1.00
      0.1171670              1.0000000              1.0000000
D    1   1.00
      1.3000000              1.0000000
D    1   1.00
      0.3250000              1.0000000
F    1   1.00
      0.5500000              1.0000000
****
Cl     0
S    6   1.00
  25180.1000000              0.0018330
   3780.3500000              0.0140340
    860.4740000              0.0690970
    242.1450000              0.2374520
     77.3349000              0.4830340
     26.2470000              0.3398560
SP   6   1.00
    491.7650000             -0.0022974              0.0039894
    116.9840000             -0.0307140              0.0303180
     37.4153000             -0.1125280              0.1298800
     13.7834000              0.0450160              0.3279510
      5.4521500              0.5893530              0.4535270
      2.2258800              0.4652060              0.2521540
SP   3   1.00
      3.1864900             -0.2518300             -0.0142990
      1.1442700              0.0615890              0.3235720
      0.4203770              1.0601800              0.7435070
SP   1   1.00
      0.1426570              1.0000000              1.0000000
D    1   1.00
      1.5000000              1.0000000
D    1   1.00
      0.3750000              1.0000000
F    1   1.00
      0.7000000              1.0000000
****
}

set {
reference uhf
freeze_core true
e_convergence 10
d_convergence 10
dft_spherical_points 1202
dft_radial_points 99
}

e = energy('b3lyp')

print_out('Grab this energy {0}'.format(e))
--------------------------------------------------------------------------

    Molecular point group: c1

    Geometry (in Bohr), charge = 0, multiplicity = 2:

       Center              X                  Y                   Z               Mass
    ------------   -----------------  -----------------  -----------------  -----------------
         C           -0.005495518057    -1.358451716865     0.001010451777    12.000000000000
         C           -0.019346733657     1.469471107835    -0.000565021423    12.000000000000
         H            1.928677346043    -2.117111367765     0.003935877477     1.007825032230
         H           -0.940680968257    -2.120775071465     1.669124523477     1.007825032230
         H           -0.948781005757    -2.121490799465    -1.676553693623     1.007825032230
         H            0.127996789243     2.519135695735    -1.749412212323     1.007825032230
         H            0.128580273943     2.518352674335     1.747601842077     1.007825032230

  Charge       = 0
  Multiplicity = 2
  Basis Set: ANONYMOUS5E4AC8F7
    Blend: 6-31G_2DFP_
  Basis Set: (ANONYMOUS5E4AC8F7 AUX)
    Blend: DEF2-UNIVERSAL-JKFIT

    Orbital Energies [Eh]
    ---------------------

    Alpha Occupied:

       1A    -10.180066     2A    -10.174776     3A     -0.750564
       4A     -0.605252     5A     -0.445508     6A     -0.410096
       7A     -0.384935     8A     -0.354407     9A     -0.197664

    Alpha Virtual:

      10A      0.099060    11A      0.127456    12A      0.141020
      13A      0.165564    14A      0.202986    15A      0.246136
      16A      0.429927    17A      0.440473    18A      0.446377
      19A      0.450324    20A      0.478469    21A      0.520724
      22A      0.543690    23A      0.573843    24A      0.593034
      25A      0.618668    26A      0.633515    27A      0.639389
      28A      0.649235    29A      0.741040    30A      0.821774
      31A      0.865684    32A      0.930060    33A      0.977309
      34A      1.023376    35A      1.071040    36A      1.082319
      37A      1.084529    38A      1.179694    39A      1.220305
      40A      1.253666    41A      1.323446    42A      1.342783
      43A      1.367106    44A      1.419294    45A      1.444529
      46A      1.508781    47A      1.522684    48A      1.602462
      49A      1.763091    50A      1.804771    51A      1.950815
      52A      2.049671    53A      2.098184    54A      2.697216
      55A      2.800242    56A      2.827960    57A      2.860249
      58A      2.928955    59A      2.962631    60A      2.986420
      61A      3.079952    62A      3.092685    63A      3.158674
      64A      3.169588    65A      3.199093    66A      3.300159
      67A      3.356601    68A      3.389708    69A      3.494910
      70A      3.498247    71A      3.580174    72A      3.593768
      73A      3.707680    74A      3.800280    75A      3.970815
      76A      4.021793    77A      4.087489    78A      4.126482
      79A      4.188195    80A      4.196643    81A      4.203934
      82A      4.288673    83A      4.367146    84A      4.486622
      85A      4.496451    86A      4.522335    87A      4.863883
      88A      4.923224    89A      5.146484    90A      5.164083
      91A      5.276578    92A      5.324154

    Beta Occupied:

       1A    -10.175595     2A    -10.166108     3A     -0.733961
       4A     -0.580576     5A     -0.439379     6A     -0.395603
       7A     -0.377015     8A     -0.349954

    Beta Virtual:

       9A     -0.036178    10A      0.101685    11A      0.138709
      12A      0.142638    13A      0.170359    14A      0.206595
      15A      0.251959    16A      0.441495    17A      0.445349
      18A      0.456008    19A      0.458698    20A      0.486992
      21A      0.548309    22A      0.587328    23A      0.592769
      24A      0.601883    25A      0.623971    26A      0.641375
      27A      0.645174    28A      0.656669    29A      0.766492
      30A      0.821563    31A      0.868683    32A      0.947786
      33A      0.988450    34A      1.031975    35A      1.078946
      36A      1.086556    37A      1.102309    38A      1.183331
      39A      1.228021    40A      1.266027    41A      1.330088
      42A      1.350301    43A      1.373351    44A      1.425219
      45A      1.451921    46A      1.513357    47A      1.534092
      48A      1.613355    49A      1.769563    50A      1.810891
      51A      1.955177    52A      2.059631    53A      2.103651
      54A      2.720397    55A      2.822082    56A      2.829905
      57A      2.876419    58A      2.931435    59A      2.989605
      60A      3.023127    61A      3.093222    62A      3.119884
      63A      3.176328    64A      3.209999    65A      3.218094
      66A      3.338915    67A      3.368992    68A      3.408723
      69A      3.519040    70A      3.537778    71A      3.596162
      72A      3.603815    73A      3.725923    74A      3.800566
      75A      3.981655    76A      4.031456    77A      4.093353
      78A      4.135859    79A      4.201177    80A      4.202752
      81A      4.212989    82A      4.296567    83A      4.371326
      84A      4.493580    85A      4.506987    86A      4.529595
      87A      4.865229    88A      4.927463    89A      5.149811
      90A      5.174958    91A      5.283575    92A      5.326690

    Final Occupation by Irrep:
              A
    DOCC [     8 ]
    SOCC [     1 ]

  @DF-UKS Final Energy:   -79.16614105258080

   => Energetics <=

    Nuclear Repulsion Energy =             36.8666011104328604
    One-Electron Energy =                -177.9489588213985201
    Two-Electron Energy =                  72.1951184408978435
    DFT Exchange-Correlation Energy =     -10.2789017825129942
    Empirical Dispersion Energy =           0.0000000000000000
    VV10 Nonlocal Energy =                  0.0000000000000000
    Total Energy =                        -79.1661410525807980

  UHF NO Occupations:
  HONO-2 :    7  A 1.9997300
  HONO-1 :    8  A 1.9987019
  HONO-0 :    9  A 1.0000000
  LUNO+0 :   10  A 0.0012981
  LUNO+1 :   11  A 0.0002700
  LUNO+2 :   12  A 0.0002477
  LUNO+3 :   13  A 0.0002231

Computation Completed

Properties will be evaluated at   0.000000,   0.000000,   0.000000 [a0]

Properties computed using the SCF density matrix

  Nuclear Dipole Moment: [e a0]
     X:     0.1467      Y:    -0.6558      Z:    -0.0026

  Electronic Dipole Moment: [e a0]
     X:    -0.1043      Y:     0.5710      Z:     0.0041

  Dipole Moment: [e a0]
     X:     0.0425      Y:    -0.0848      Z:     0.0015     Total:     0.0949

  Dipole Moment: [D]
     X:     0.1079      Y:    -0.2155      Z:     0.0039     Total:     0.2411

*** tstop() called on n079 at Fri Nov  5 19:14:46 2021
Module time:
	user time   =      43.50 seconds =       0.72 minutes
	system time =       0.57 seconds =       0.01 minutes
	total time  =         44 seconds =       0.73 minutes
Total time:
	user time   =      43.50 seconds =       0.72 minutes
	system time =       0.57 seconds =       0.01 minutes
	total time  =         44 seconds =       0.73 minutes
Grab this energy -79.1661410525808
    Psi4 stopped on: Friday, 05 November 2021 07:14PM
    Psi4 wall time for execution: 0:00:44.11

*** Psi4 exiting successfully. Buy a developer a beer!
