                               Psi4 1.4a2.dev629

  ==> Input File <==

--------------------------------------------------------------------------
import os
memory 14 GB

molecule {
 C   -0.0037595424   -1.3544114628    0.0011471641
 C   -0.0189538279    1.4654305142    0.0045893662
 H    1.9225327289   -2.1110798082   -0.0008145056
 H   -0.9429686736   -2.1157760946    1.6758574375
 H   -0.9419703425   -2.1169713871   -1.6769974171
 H    0.1279159544    2.5111847517   -1.7514136957
 H    0.1282562794    2.5099332189    1.7476316506
units bohr
0 2
}

basis {

assign 6-31g_2dfp_

[ 6-31g_2dfp_ ]

spherical

!----------------------------------------------------------------------
! Basis Set Exchange
! Version v0.8.13
! https://www.basissetexchange.org
!----------------------------------------------------------------------
!   Basis set: 6-31G(2df,p)
! Description: 6-31G(2df,p)
!        Role: orbital
!     Version: 0  (Data from the original Basis Set Exchange)
!----------------------------------------------------------------------

****
H     0
S    3   1.00
     18.7311370              0.03349460
      2.8253937              0.23472695
      0.6401217              0.81375733
S    1   1.00
      0.1612778              1.00000000
P    1   1.00
      1.5000000              1.0000000
P    1   1.00
      0.3750000              1.0000000
****
B     0
S    6   1.00
   2068.8823000              0.0018663
    310.6495700              0.0142515
     70.6830330              0.0695516
     19.8610800              0.2325729
      6.2993048              0.4670787
      2.1270270              0.3634314
SP   3   1.00
      4.7279710             -0.1303938              0.0745976
      1.1903377             -0.1307889              0.3078467
      0.3594117              1.1309444              0.7434568
SP   1   1.00
      0.1267512              1.0000000              1.0000000
D    1   1.00
      0.8020000              1.0000000
D    1   1.00
      0.2005000              1.0000000
F    1   1.00
      0.5000000              1.0000000
****
C     0
S    6   1.00
   3047.5249000              0.0018347
    457.3695100              0.0140373
    103.9486900              0.0688426
     29.2101550              0.2321844
      9.2866630              0.4679413
      3.1639270              0.3623120
SP   3   1.00
      7.8682724             -0.1193324              0.0689991
      1.8812885             -0.1608542              0.3164240
      0.5442493              1.1434564              0.7443083
SP   1   1.00
      0.1687144              1.0000000              1.0000000
D    1   1.00
      1.2520000              1.0000000
D    1   1.00
      0.3130000              1.0000000
F    1   1.00
      0.8000000              1.0000000
****
N     0
S    6   1.00
   4173.5110000              0.0018348
    627.4579000              0.0139950
    142.9021000              0.0685870
     40.2343300              0.2322410
     12.8202100              0.4690700
      4.3904370              0.3604550
SP   3   1.00
     11.6263580             -0.1149610              0.0675800
      2.7162800             -0.1691180              0.3239070
      0.7722180              1.1458520              0.7408950
SP   1   1.00
      0.2120313              1.0000000              1.0000000
D    1   1.00
      1.8260000              1.0000000
D    1   1.00
      0.4565000              1.0000000
F    1   1.00
      1.0000000              1.0000000
****
O     0
S    6   1.00
   5484.6717000              0.0018311
    825.2349500              0.0139501
    188.0469600              0.0684451
     52.9645000              0.2327143
     16.8975700              0.4701930
      5.7996353              0.3585209
SP   3   1.00
     15.5396160             -0.1107775              0.0708743
      3.5999336             -0.1480263              0.3397528
      1.0137618              1.1307670              0.7271586
SP   1   1.00
      0.2700058              1.0000000              1.0000000
D    1   1.00
      2.5840000              1.0000000
D    1   1.00
      0.6460000              1.0000000
F    1   1.00
      1.4000000              1.0000000
****
F     0
S    6   1.00
   7001.7130900              0.0018196169
   1051.3660900              0.0139160796
    239.2856900              0.0684053245
     67.3974453              0.233185760
     21.5199573              0.471267439
      7.40310130             0.356618546
SP   3   1.00
     20.8479528             -0.108506975            0.0716287243
      4.80830834            -0.146451658            0.3459121030
      1.34406986             1.128688580            0.7224699570
SP   1   1.00
      0.358151393            1.0000000              1.0000000
D    1   1.00
      3.5000000              1.0000000
D    1   1.00
      0.8750000              1.0000000
F    1   1.00
      1.8500000              1.0000000
****
Al     0
S    6   1.00
  13983.1000000              0.00194267
   2098.7500000              0.0148599
    477.7050000              0.0728494
    134.3600000              0.2468300
     42.8709000              0.4872580
     14.5189000              0.3234960
SP   6   1.00
    239.6680000             -0.00292619             0.00460285
     57.4419000             -0.0374080              0.0331990
     18.2859000             -0.1144870              0.1362820
      6.5991400              0.1156350              0.3304760
      2.4904900              0.6125950              0.4491460
      0.9445400              0.3937990              0.2657040
SP   3   1.00
      1.2779000             -0.2276060             -0.0175130
      0.3975900              0.00144583             0.2445330
      0.1600950              1.0927900              0.8049340
SP   1   1.00
      0.0556577              1.0000000              1.0000000
D    1   1.00
      0.6500000              1.0000000
D    1   1.00
      0.1625000              1.0000000
F    1   1.00
      0.2500000              1.0000000
****
Si     0
S    6   1.00
  16115.9000000              0.00195948
   2425.5800000              0.01492880
    553.8670000              0.07284780
    156.3400000              0.24613000
     50.0683000              0.48591400
     17.0178000              0.32500200
SP   6   1.00
    292.7180000             -0.00278094             0.00443826
     69.8731000             -0.03571460             0.03266790
     22.3363000             -0.11498500             0.13472100
      8.1503900              0.09356340             0.32867800
      3.1345800              0.60301700             0.44964000
      1.2254300              0.41895900             0.26137200
SP   3   1.00
      1.7273800             -0.24463000            -0.01779510
      0.5729220              0.00431572             0.25353900
      0.2221920              1.09818000             0.80066900
SP   1   1.00
      0.0778369              1.00000000             1.00000000
D    1   1.00
      0.9000000              1.0000000
D    1   1.00
      0.2250000              1.0000000
F    1   1.00
      0.3200000              1.0000000
****
P     0
S    6   1.00
  19413.3000000              0.0018516
   2909.4200000              0.0142062
    661.3640000              0.0699995
    185.7590000              0.2400790
     59.1943000              0.4847620
     20.0310000              0.3352000
SP   6   1.00
    339.4780000             -0.00278217             0.00456462
     81.0101000             -0.0360499              0.03369360
     25.8780000             -0.1166310              0.13975500
      9.4522100              0.0968328              0.33936200
      3.6656600              0.6144180              0.45092100
      1.4674600              0.4037980              0.23858600
SP   3   1.00
      2.1562300             -0.2529230             -0.01776530
      0.7489970              0.0328517              0.27405800
      0.2831450              1.0812500              0.78542100
SP   1   1.00
      0.0998317              1.0000000              1.00000000
D    1   1.00
      1.1000000              1.0000000
D    1   1.00
      0.2750000              1.0000000
F    1   1.00
      0.4500000              1.0000000
****
S     0
S    6   1.00
  21917.1000000              0.0018690
   3301.4900000              0.0142300
    754.1460000              0.0696960
    212.7110000              0.2384870
     67.9896000              0.4833070
     23.0515000              0.3380740
SP   6   1.00
    423.7350000             -0.0023767              0.0040610
    100.7100000             -0.0316930              0.0306810
     32.1599000             -0.1133170              0.1304520
     11.8079000              0.0560900              0.3272050
      4.6311000              0.5922550              0.4528510
      1.8702500              0.4550060              0.2560420
SP   3   1.00
      2.6158400             -0.2503740             -0.0145110
      0.9221670              0.0669570              0.3102630
      0.3412870              1.0545100              0.7544830
SP   1   1.00
      0.1171670              1.0000000              1.0000000
D    1   1.00
      1.3000000              1.0000000
D    1   1.00
      0.3250000              1.0000000
F    1   1.00
      0.5500000              1.0000000
****
Cl     0
S    6   1.00
  25180.1000000              0.0018330
   3780.3500000              0.0140340
    860.4740000              0.0690970
    242.1450000              0.2374520
     77.3349000              0.4830340
     26.2470000              0.3398560
SP   6   1.00
    491.7650000             -0.0022974              0.0039894
    116.9840000             -0.0307140              0.0303180
     37.4153000             -0.1125280              0.1298800
     13.7834000              0.0450160              0.3279510
      5.4521500              0.5893530              0.4535270
      2.2258800              0.4652060              0.2521540
SP   3   1.00
      3.1864900             -0.2518300             -0.0142990
      1.1442700              0.0615890              0.3235720
      0.4203770              1.0601800              0.7435070
SP   1   1.00
      0.1426570              1.0000000              1.0000000
D    1   1.00
      1.5000000              1.0000000
D    1   1.00
      0.3750000              1.0000000
F    1   1.00
      0.7000000              1.0000000
****
}

set {
reference uhf
freeze_core true
e_convergence 10
d_convergence 10
dft_spherical_points 1202
dft_radial_points 99
}

e = energy('b3lyp')

print_out('Grab this energy {0}'.format(e))
--------------------------------------------------------------------------

    Molecular point group: c1

    Geometry (in Bohr), charge = 0, multiplicity = 2:

       Center              X                  Y                   Z               Mass
    ------------   -----------------  -----------------  -----------------  -----------------
         C           -0.004568941129    -1.354382848110    -0.001024283711    12.000000000000
         C           -0.019763226629     1.465459128890     0.002417918389    12.000000000000
         H            1.921723330171    -2.111051193510    -0.002985953411     1.007825032230
         H           -0.943778072329    -2.115747479910     1.673685989689     1.007825032230
         H           -0.942779741229    -2.116942772410    -1.679168864911     1.007825032230
         H            0.127106555671     2.511213366390    -1.753585143511     1.007825032230
         H            0.127446880671     2.509961833590     1.745460202789     1.007825032230

  Charge       = 0
  Multiplicity = 2
  Basis Set: ANONYMOUSF40F418F
    Blend: 6-31G_2DFP_
  Basis Set: (ANONYMOUSF40F418F AUX)
    Blend: DEF2-UNIVERSAL-JKFIT

    Orbital Energies [Eh]
    ---------------------

    Alpha Occupied:

       1A    -10.179492     2A    -10.174197     3A     -0.751539
       4A     -0.604996     5A     -0.446193     6A     -0.410764
       7A     -0.385155     8A     -0.354152     9A     -0.197360

    Alpha Virtual:

      10A      0.098966    11A      0.128110    12A      0.140685
      13A      0.166170    14A      0.203173    15A      0.247138
      16A      0.430322    17A      0.440815    18A      0.446277
      19A      0.449900    20A      0.478406    21A      0.521187
      22A      0.543921    23A      0.574043    24A      0.594106
      25A      0.618441    26A      0.635199    27A      0.639138
      28A      0.649992    29A      0.741342    30A      0.822589
      31A      0.865700    32A      0.931461    33A      0.977580
      34A      1.024809    35A      1.071377    36A      1.083439
      37A      1.085559    38A      1.178969    39A      1.220130
      40A      1.254673    41A      1.323882    42A      1.344475
      43A      1.367097    44A      1.421882    45A      1.444930
      46A      1.510144    47A      1.524009    48A      1.603600
      49A      1.766927    50A      1.803987    51A      1.950427
      52A      2.050004    53A      2.105132    54A      2.698653
      55A      2.801256    56A      2.828715    57A      2.859653
      58A      2.928613    59A      2.963392    60A      2.987169
      61A      3.079971    62A      3.092578    63A      3.158823
      64A      3.170698    65A      3.199563    66A      3.300529
      67A      3.358942    68A      3.389658    69A      3.494279
      70A      3.500922    71A      3.580529    72A      3.593082
      73A      3.712032    74A      3.806580    75A      3.973975
      76A      4.024355    77A      4.086827    78A      4.129787
      79A      4.189608    80A      4.199189    81A      4.205798
      82A      4.294199    83A      4.368246    84A      4.488280
      85A      4.504258    86A      4.526242    87A      4.863724
      88A      4.924682    89A      5.144472    90A      5.171113
      91A      5.282975    92A      5.325454

    Beta Occupied:

       1A    -10.175013     2A    -10.165547     3A     -0.734879
       4A     -0.580355     5A     -0.440032     6A     -0.396123
       7A     -0.377255     8A     -0.349692

    Beta Virtual:

       9A     -0.036047    10A      0.101617    11A      0.139245
      12A      0.142323    13A      0.170981    14A      0.206786
      15A      0.252881    16A      0.441786    17A      0.444960
      18A      0.455633    19A      0.459240    20A      0.487376
      21A      0.549375    22A      0.587367    23A      0.592477
      24A      0.602870    25A      0.623846    26A      0.642846
      27A      0.645098    28A      0.657465    29A      0.766720
      30A      0.822373    31A      0.868726    32A      0.949065
      33A      0.988822    34A      1.033422    35A      1.079351
      36A      1.088520    37A      1.102472    38A      1.182658
      39A      1.227875    40A      1.266890    41A      1.330412
      42A      1.351934    43A      1.373498    44A      1.427844
      45A      1.452451    46A      1.514788    47A      1.535148
      48A      1.614759    49A      1.773372    50A      1.810285
      51A      1.954869    52A      2.059960    53A      2.110659
      54A      2.721907    55A      2.823157    56A      2.830597
      57A      2.875655    58A      2.931130    59A      2.990657
      60A      3.023577    61A      3.093476    62A      3.119729
      63A      3.176558    64A      3.210689    65A      3.218661
      66A      3.339263    67A      3.371817    68A      3.407930
      69A      3.520788    70A      3.537405    71A      3.597170
      72A      3.603295    73A      3.730166    74A      3.806915
      75A      3.984550    76A      4.033478    77A      4.093161
      78A      4.139327    79A      4.202515    80A      4.205248
      81A      4.215272    82A      4.302066    83A      4.372572
      84A      4.495325    85A      4.514899    86A      4.533552
      87A      4.865091    88A      4.928923    89A      5.148079
      90A      5.181716    91A      5.290107    92A      5.328029

    Final Occupation by Irrep:
              A
    DOCC [     8 ]
    SOCC [     1 ]

  @DF-UKS Final Energy:   -79.16613899671430

   => Energetics <=

    Nuclear Repulsion Energy =             36.9304578759989539
    One-Electron Energy =                -178.0737593796418707
    Two-Electron Energy =                  72.2584334902701073
    DFT Exchange-Correlation Energy =     -10.2812709833414679
    Empirical Dispersion Energy =           0.0000000000000000
    VV10 Nonlocal Energy =                  0.0000000000000000
    Total Energy =                        -79.1661389967142952

  UHF NO Occupations:
  HONO-2 :    7  A 1.9997314
  HONO-1 :    8  A 1.9987091
  HONO-0 :    9  A 1.0000000
  LUNO+0 :   10  A 0.0012909
  LUNO+1 :   11  A 0.0002686
  LUNO+2 :   12  A 0.0002471
  LUNO+3 :   13  A 0.0002216

Computation Completed

Properties will be evaluated at   0.000000,   0.000000,   0.000000 [a0]

Properties computed using the SCF density matrix

  Nuclear Dipole Moment: [e a0]
     X:     0.1437      Y:    -0.6561      Z:    -0.0082

  Electronic Dipole Moment: [e a0]
     X:    -0.0996      Y:     0.5710      Z:     0.0093

  Dipole Moment: [e a0]
     X:     0.0441      Y:    -0.0851      Z:     0.0011     Total:     0.0958

  Dipole Moment: [D]
     X:     0.1121      Y:    -0.2163      Z:     0.0027     Total:     0.2436

*** tstop() called on n022 at Fri Nov  5 19:05:20 2021
Module time:
	user time   =      61.22 seconds =       1.02 minutes
	system time =       0.48 seconds =       0.01 minutes
	total time  =         62 seconds =       1.03 minutes
Total time:
	user time   =      61.22 seconds =       1.02 minutes
	system time =       0.48 seconds =       0.01 minutes
	total time  =         62 seconds =       1.03 minutes
Grab this energy -79.1661389967143
    Psi4 stopped on: Friday, 05 November 2021 07:05PM
    Psi4 wall time for execution: 0:01:01.74

*** Psi4 exiting successfully. Buy a developer a beer!
