                               Psi4 1.4a2.dev629

  ==> Input File <==

--------------------------------------------------------------------------
import os
memory 14 GB

molecule {
 C   -0.0030868099   -1.3542934664    0.0011479243
 C   -0.0176104598    1.4654472743    0.0045895596
 H    1.9277984832   -2.1116956131   -0.0008099841
 H   -0.9458556963   -2.1155368351    1.6712734427
 H   -0.9448556398   -2.1167348215   -1.6724197246
 H    0.1271561419    2.5111871880   -1.7514345820
 H    0.1275065571    2.5099360061    1.7476533641
units bohr
0 2
}

basis {

assign 6-31g_2dfp_

[ 6-31g_2dfp_ ]

spherical

!----------------------------------------------------------------------
! Basis Set Exchange
! Version v0.8.13
! https://www.basissetexchange.org
!----------------------------------------------------------------------
!   Basis set: 6-31G(2df,p)
! Description: 6-31G(2df,p)
!        Role: orbital
!     Version: 0  (Data from the original Basis Set Exchange)
!----------------------------------------------------------------------

****
H     0
S    3   1.00
     18.7311370              0.03349460
      2.8253937              0.23472695
      0.6401217              0.81375733
S    1   1.00
      0.1612778              1.00000000
P    1   1.00
      1.5000000              1.0000000
P    1   1.00
      0.3750000              1.0000000
****
B     0
S    6   1.00
   2068.8823000              0.0018663
    310.6495700              0.0142515
     70.6830330              0.0695516
     19.8610800              0.2325729
      6.2993048              0.4670787
      2.1270270              0.3634314
SP   3   1.00
      4.7279710             -0.1303938              0.0745976
      1.1903377             -0.1307889              0.3078467
      0.3594117              1.1309444              0.7434568
SP   1   1.00
      0.1267512              1.0000000              1.0000000
D    1   1.00
      0.8020000              1.0000000
D    1   1.00
      0.2005000              1.0000000
F    1   1.00
      0.5000000              1.0000000
****
C     0
S    6   1.00
   3047.5249000              0.0018347
    457.3695100              0.0140373
    103.9486900              0.0688426
     29.2101550              0.2321844
      9.2866630              0.4679413
      3.1639270              0.3623120
SP   3   1.00
      7.8682724             -0.1193324              0.0689991
      1.8812885             -0.1608542              0.3164240
      0.5442493              1.1434564              0.7443083
SP   1   1.00
      0.1687144              1.0000000              1.0000000
D    1   1.00
      1.2520000              1.0000000
D    1   1.00
      0.3130000              1.0000000
F    1   1.00
      0.8000000              1.0000000
****
N     0
S    6   1.00
   4173.5110000              0.0018348
    627.4579000              0.0139950
    142.9021000              0.0685870
     40.2343300              0.2322410
     12.8202100              0.4690700
      4.3904370              0.3604550
SP   3   1.00
     11.6263580             -0.1149610              0.0675800
      2.7162800             -0.1691180              0.3239070
      0.7722180              1.1458520              0.7408950
SP   1   1.00
      0.2120313              1.0000000              1.0000000
D    1   1.00
      1.8260000              1.0000000
D    1   1.00
      0.4565000              1.0000000
F    1   1.00
      1.0000000              1.0000000
****
O     0
S    6   1.00
   5484.6717000              0.0018311
    825.2349500              0.0139501
    188.0469600              0.0684451
     52.9645000              0.2327143
     16.8975700              0.4701930
      5.7996353              0.3585209
SP   3   1.00
     15.5396160             -0.1107775              0.0708743
      3.5999336             -0.1480263              0.3397528
      1.0137618              1.1307670              0.7271586
SP   1   1.00
      0.2700058              1.0000000              1.0000000
D    1   1.00
      2.5840000              1.0000000
D    1   1.00
      0.6460000              1.0000000
F    1   1.00
      1.4000000              1.0000000
****
F     0
S    6   1.00
   7001.7130900              0.0018196169
   1051.3660900              0.0139160796
    239.2856900              0.0684053245
     67.3974453              0.233185760
     21.5199573              0.471267439
      7.40310130             0.356618546
SP   3   1.00
     20.8479528             -0.108506975            0.0716287243
      4.80830834            -0.146451658            0.3459121030
      1.34406986             1.128688580            0.7224699570
SP   1   1.00
      0.358151393            1.0000000              1.0000000
D    1   1.00
      3.5000000              1.0000000
D    1   1.00
      0.8750000              1.0000000
F    1   1.00
      1.8500000              1.0000000
****
Al     0
S    6   1.00
  13983.1000000              0.00194267
   2098.7500000              0.0148599
    477.7050000              0.0728494
    134.3600000              0.2468300
     42.8709000              0.4872580
     14.5189000              0.3234960
SP   6   1.00
    239.6680000             -0.00292619             0.00460285
     57.4419000             -0.0374080              0.0331990
     18.2859000             -0.1144870              0.1362820
      6.5991400              0.1156350              0.3304760
      2.4904900              0.6125950              0.4491460
      0.9445400              0.3937990              0.2657040
SP   3   1.00
      1.2779000             -0.2276060             -0.0175130
      0.3975900              0.00144583             0.2445330
      0.1600950              1.0927900              0.8049340
SP   1   1.00
      0.0556577              1.0000000              1.0000000
D    1   1.00
      0.6500000              1.0000000
D    1   1.00
      0.1625000              1.0000000
F    1   1.00
      0.2500000              1.0000000
****
Si     0
S    6   1.00
  16115.9000000              0.00195948
   2425.5800000              0.01492880
    553.8670000              0.07284780
    156.3400000              0.24613000
     50.0683000              0.48591400
     17.0178000              0.32500200
SP   6   1.00
    292.7180000             -0.00278094             0.00443826
     69.8731000             -0.03571460             0.03266790
     22.3363000             -0.11498500             0.13472100
      8.1503900              0.09356340             0.32867800
      3.1345800              0.60301700             0.44964000
      1.2254300              0.41895900             0.26137200
SP   3   1.00
      1.7273800             -0.24463000            -0.01779510
      0.5729220              0.00431572             0.25353900
      0.2221920              1.09818000             0.80066900
SP   1   1.00
      0.0778369              1.00000000             1.00000000
D    1   1.00
      0.9000000              1.0000000
D    1   1.00
      0.2250000              1.0000000
F    1   1.00
      0.3200000              1.0000000
****
P     0
S    6   1.00
  19413.3000000              0.0018516
   2909.4200000              0.0142062
    661.3640000              0.0699995
    185.7590000              0.2400790
     59.1943000              0.4847620
     20.0310000              0.3352000
SP   6   1.00
    339.4780000             -0.00278217             0.00456462
     81.0101000             -0.0360499              0.03369360
     25.8780000             -0.1166310              0.13975500
      9.4522100              0.0968328              0.33936200
      3.6656600              0.6144180              0.45092100
      1.4674600              0.4037980              0.23858600
SP   3   1.00
      2.1562300             -0.2529230             -0.01776530
      0.7489970              0.0328517              0.27405800
      0.2831450              1.0812500              0.78542100
SP   1   1.00
      0.0998317              1.0000000              1.00000000
D    1   1.00
      1.1000000              1.0000000
D    1   1.00
      0.2750000              1.0000000
F    1   1.00
      0.4500000              1.0000000
****
S     0
S    6   1.00
  21917.1000000              0.0018690
   3301.4900000              0.0142300
    754.1460000              0.0696960
    212.7110000              0.2384870
     67.9896000              0.4833070
     23.0515000              0.3380740
SP   6   1.00
    423.7350000             -0.0023767              0.0040610
    100.7100000             -0.0316930              0.0306810
     32.1599000             -0.1133170              0.1304520
     11.8079000              0.0560900              0.3272050
      4.6311000              0.5922550              0.4528510
      1.8702500              0.4550060              0.2560420
SP   3   1.00
      2.6158400             -0.2503740             -0.0145110
      0.9221670              0.0669570              0.3102630
      0.3412870              1.0545100              0.7544830
SP   1   1.00
      0.1171670              1.0000000              1.0000000
D    1   1.00
      1.3000000              1.0000000
D    1   1.00
      0.3250000              1.0000000
F    1   1.00
      0.5500000              1.0000000
****
Cl     0
S    6   1.00
  25180.1000000              0.0018330
   3780.3500000              0.0140340
    860.4740000              0.0690970
    242.1450000              0.2374520
     77.3349000              0.4830340
     26.2470000              0.3398560
SP   6   1.00
    491.7650000             -0.0022974              0.0039894
    116.9840000             -0.0307140              0.0303180
     37.4153000             -0.1125280              0.1298800
     13.7834000              0.0450160              0.3279510
      5.4521500              0.5893530              0.4535270
      2.2258800              0.4652060              0.2521540
SP   3   1.00
      3.1864900             -0.2518300             -0.0142990
      1.1442700              0.0615890              0.3235720
      0.4203770              1.0601800              0.7435070
SP   1   1.00
      0.1426570              1.0000000              1.0000000
D    1   1.00
      1.5000000              1.0000000
D    1   1.00
      0.3750000              1.0000000
F    1   1.00
      0.7000000              1.0000000
****
}

set {
reference uhf
freeze_core true
e_convergence 10
d_convergence 10
dft_spherical_points 1202
dft_radial_points 99
}

e = energy('b3lyp')

print_out('Grab this energy {0}'.format(e))
--------------------------------------------------------------------------

    Molecular point group: c1

    Geometry (in Bohr), charge = 0, multiplicity = 2:

       Center              X                  Y                   Z               Mass
    ------------   -----------------  -----------------  -----------------  -----------------
         C           -0.004659362840    -1.354315861072    -0.001023884477    12.000000000000
         C           -0.019183012740     1.465424879628     0.002417750823    12.000000000000
         H            1.926225930260    -2.111718007772    -0.002981792877     1.007825032230
         H           -0.947428249240    -2.115559229772     1.669101633923     1.007825032230
         H           -0.946428192740    -2.116757216172    -1.674591533377     1.007825032230
         H            0.125583588960     2.511164793328    -1.753606390777     1.007825032230
         H            0.125934004160     2.509913611428     1.745481555323     1.007825032230

  Charge       = 0
  Multiplicity = 2
  Basis Set: ANONYMOUS748AB494
    Blend: 6-31G_2DFP_
  Basis Set: (ANONYMOUS748AB494 AUX)
    Blend: DEF2-UNIVERSAL-JKFIT

    Orbital Energies [Eh]
    ---------------------

    Alpha Occupied:

       1A    -10.179480     2A    -10.174188     3A     -0.751534
       4A     -0.604990     5A     -0.446124     6A     -0.410845
       7A     -0.385253     8A     -0.354034     9A     -0.197377

    Alpha Virtual:

      10A      0.099053    11A      0.127989    12A      0.140815
      13A      0.165972    14A      0.203281    15A      0.247196
      16A      0.430289    17A      0.440744    18A      0.446285
      19A      0.450109    20A      0.478628    21A      0.520920
      22A      0.543803    23A      0.574126    24A      0.594080
      25A      0.618586    26A      0.634467    27A      0.639565
      28A      0.650179    29A      0.741264    30A      0.822606
      31A      0.865929    32A      0.931162    33A      0.977099
      34A      1.024747    35A      1.071673    36A      1.083340
      37A      1.085412    38A      1.180723    39A      1.220114
      40A      1.254046    41A      1.323094    42A      1.344596
      43A      1.368159    44A      1.420423    45A      1.445728
      46A      1.509914    47A      1.523913    48A      1.603338
      49A      1.765178    50A      1.806382    51A      1.951437
      52A      2.050049    53A      2.103725    54A      2.698431
      55A      2.801242    56A      2.828693    57A      2.860303
      58A      2.928940    59A      2.963178    60A      2.986457
      61A      3.079877    62A      3.093088    63A      3.159154
      64A      3.171089    65A      3.199278    66A      3.300040
      67A      3.357679    68A      3.390101    69A      3.494334
      70A      3.499379    71A      3.580595    72A      3.594923
      73A      3.712131    74A      3.807375    75A      3.973762
      76A      4.023664    77A      4.088078    78A      4.129323
      79A      4.189504    80A      4.197957    81A      4.205061
      82A      4.294767    83A      4.368340    84A      4.490030
      85A      4.502915    86A      4.526868    87A      4.864782
      88A      4.924473    89A      5.144758    90A      5.170722
      91A      5.278963    92A      5.329049

    Beta Occupied:

       1A    -10.175007     2A    -10.165536     3A     -0.734871
       4A     -0.580365     5A     -0.439958     6A     -0.396227
       7A     -0.377319     8A     -0.349595

    Beta Virtual:

       9A     -0.036069    10A      0.101699    11A      0.139143
      12A      0.142451    13A      0.170787    14A      0.206881
      15A      0.252934    16A      0.441734    17A      0.445030
      18A      0.455822    19A      0.459224    20A      0.487514
      21A      0.549082    22A      0.587517    23A      0.592389
      24A      0.602839    25A      0.623949    26A      0.642326
      27A      0.645318    28A      0.657628    29A      0.766627
      30A      0.822394    31A      0.868952    32A      0.948785
      33A      0.988285    34A      1.033296    35A      1.079708
      36A      1.088825    37A      1.101973    38A      1.184322
      39A      1.227915    40A      1.266431    41A      1.329571
      42A      1.352147    43A      1.374452    44A      1.426381
      45A      1.453222    46A      1.514558    47A      1.535101
      48A      1.614448    49A      1.771657    50A      1.812654
      51A      1.955877    52A      2.059994    53A      2.109232
      54A      2.721692    55A      2.823090    56A      2.830525
      57A      2.876418    58A      2.931474    59A      2.989958
      60A      3.023291    61A      3.093288    62A      3.120393
      63A      3.176817    64A      3.211188    65A      3.218309
      66A      3.338837    67A      3.369900    68A      3.409044
      69A      3.519298    70A      3.537274    71A      3.597239
      72A      3.605115    73A      3.730293    74A      3.807741
      75A      3.984390    76A      4.032811    77A      4.094516
      78A      4.138828    79A      4.202334    80A      4.204212
      81A      4.214326    82A      4.302735    83A      4.372575
      84A      4.497057    85A      4.513509    86A      4.534190
      87A      4.866132    88A      4.928730    89A      5.148383
      90A      5.181301    91A      5.286093    92A      5.331600

    Final Occupation by Irrep:
              A
    DOCC [     8 ]
    SOCC [     1 ]

  @DF-UKS Final Energy:   -79.16614996690541

   => Energetics <=

    Nuclear Repulsion Energy =             36.9308989315727132
    One-Electron Energy =                -178.0746838735657605
    Two-Electron Energy =                  72.2589346875342073
    DFT Exchange-Correlation Energy =     -10.2812997124465806
    Empirical Dispersion Energy =           0.0000000000000000
    VV10 Nonlocal Energy =                  0.0000000000000000
    Total Energy =                        -79.1661499669054081

  UHF NO Occupations:
  HONO-2 :    7  A 1.9997315
  HONO-1 :    8  A 1.9987082
  HONO-0 :    9  A 1.0000000
  LUNO+0 :   10  A 0.0012918
  LUNO+1 :   11  A 0.0002685
  LUNO+2 :   12  A 0.0002484
  LUNO+3 :   13  A 0.0002217

Computation Completed

Properties will be evaluated at   0.000000,   0.000000,   0.000000 [a0]

Properties computed using the SCF density matrix

  Nuclear Dipole Moment: [e a0]
     X:     0.1408      Y:    -0.6563      Z:    -0.0082

  Electronic Dipole Moment: [e a0]
     X:    -0.0987      Y:     0.5715      Z:     0.0093

  Dipole Moment: [e a0]
     X:     0.0422      Y:    -0.0848      Z:     0.0011     Total:     0.0947

  Dipole Moment: [D]
     X:     0.1072      Y:    -0.2156      Z:     0.0027     Total:     0.2408

*** tstop() called on n044 at Fri Nov  5 18:14:50 2021
Module time:
	user time   =      61.61 seconds =       1.03 minutes
	system time =       0.48 seconds =       0.01 minutes
	total time  =         62 seconds =       1.03 minutes
Total time:
	user time   =      61.61 seconds =       1.03 minutes
	system time =       0.48 seconds =       0.01 minutes
	total time  =         62 seconds =       1.03 minutes
Grab this energy -79.16614996690541
    Psi4 stopped on: Friday, 05 November 2021 06:14PM
    Psi4 wall time for execution: 0:01:02.12

*** Psi4 exiting successfully. Buy a developer a beer!
