                               Psi4 1.4a2.dev629

  ==> Input File <==

--------------------------------------------------------------------------
import os
memory 14 GB

molecule {
 C   -0.0064609063   -1.3544775558   -0.0009658808
 C   -0.0184154998    1.4656559685    0.0009502881
 H    1.9272233794   -2.1032933881   -0.0022689436
 H   -0.9462577449   -2.1141555172    1.6699119555
 H   -0.9461344385   -2.1266936543   -1.6736527715
 H    0.1305136662    2.5079023362   -1.7469906037
 H    0.1305841203    2.5133715428    1.7530159561
units bohr
0 2
}

basis {

assign 6-31g_2dfp_

[ 6-31g_2dfp_ ]

spherical

!----------------------------------------------------------------------
! Basis Set Exchange
! Version v0.8.13
! https://www.basissetexchange.org
!----------------------------------------------------------------------
!   Basis set: 6-31G(2df,p)
! Description: 6-31G(2df,p)
!        Role: orbital
!     Version: 0  (Data from the original Basis Set Exchange)
!----------------------------------------------------------------------

****
H     0
S    3   1.00
     18.7311370              0.03349460
      2.8253937              0.23472695
      0.6401217              0.81375733
S    1   1.00
      0.1612778              1.00000000
P    1   1.00
      1.5000000              1.0000000
P    1   1.00
      0.3750000              1.0000000
****
B     0
S    6   1.00
   2068.8823000              0.0018663
    310.6495700              0.0142515
     70.6830330              0.0695516
     19.8610800              0.2325729
      6.2993048              0.4670787
      2.1270270              0.3634314
SP   3   1.00
      4.7279710             -0.1303938              0.0745976
      1.1903377             -0.1307889              0.3078467
      0.3594117              1.1309444              0.7434568
SP   1   1.00
      0.1267512              1.0000000              1.0000000
D    1   1.00
      0.8020000              1.0000000
D    1   1.00
      0.2005000              1.0000000
F    1   1.00
      0.5000000              1.0000000
****
C     0
S    6   1.00
   3047.5249000              0.0018347
    457.3695100              0.0140373
    103.9486900              0.0688426
     29.2101550              0.2321844
      9.2866630              0.4679413
      3.1639270              0.3623120
SP   3   1.00
      7.8682724             -0.1193324              0.0689991
      1.8812885             -0.1608542              0.3164240
      0.5442493              1.1434564              0.7443083
SP   1   1.00
      0.1687144              1.0000000              1.0000000
D    1   1.00
      1.2520000              1.0000000
D    1   1.00
      0.3130000              1.0000000
F    1   1.00
      0.8000000              1.0000000
****
N     0
S    6   1.00
   4173.5110000              0.0018348
    627.4579000              0.0139950
    142.9021000              0.0685870
     40.2343300              0.2322410
     12.8202100              0.4690700
      4.3904370              0.3604550
SP   3   1.00
     11.6263580             -0.1149610              0.0675800
      2.7162800             -0.1691180              0.3239070
      0.7722180              1.1458520              0.7408950
SP   1   1.00
      0.2120313              1.0000000              1.0000000
D    1   1.00
      1.8260000              1.0000000
D    1   1.00
      0.4565000              1.0000000
F    1   1.00
      1.0000000              1.0000000
****
O     0
S    6   1.00
   5484.6717000              0.0018311
    825.2349500              0.0139501
    188.0469600              0.0684451
     52.9645000              0.2327143
     16.8975700              0.4701930
      5.7996353              0.3585209
SP   3   1.00
     15.5396160             -0.1107775              0.0708743
      3.5999336             -0.1480263              0.3397528
      1.0137618              1.1307670              0.7271586
SP   1   1.00
      0.2700058              1.0000000              1.0000000
D    1   1.00
      2.5840000              1.0000000
D    1   1.00
      0.6460000              1.0000000
F    1   1.00
      1.4000000              1.0000000
****
F     0
S    6   1.00
   7001.7130900              0.0018196169
   1051.3660900              0.0139160796
    239.2856900              0.0684053245
     67.3974453              0.233185760
     21.5199573              0.471267439
      7.40310130             0.356618546
SP   3   1.00
     20.8479528             -0.108506975            0.0716287243
      4.80830834            -0.146451658            0.3459121030
      1.34406986             1.128688580            0.7224699570
SP   1   1.00
      0.358151393            1.0000000              1.0000000
D    1   1.00
      3.5000000              1.0000000
D    1   1.00
      0.8750000              1.0000000
F    1   1.00
      1.8500000              1.0000000
****
Al     0
S    6   1.00
  13983.1000000              0.00194267
   2098.7500000              0.0148599
    477.7050000              0.0728494
    134.3600000              0.2468300
     42.8709000              0.4872580
     14.5189000              0.3234960
SP   6   1.00
    239.6680000             -0.00292619             0.00460285
     57.4419000             -0.0374080              0.0331990
     18.2859000             -0.1144870              0.1362820
      6.5991400              0.1156350              0.3304760
      2.4904900              0.6125950              0.4491460
      0.9445400              0.3937990              0.2657040
SP   3   1.00
      1.2779000             -0.2276060             -0.0175130
      0.3975900              0.00144583             0.2445330
      0.1600950              1.0927900              0.8049340
SP   1   1.00
      0.0556577              1.0000000              1.0000000
D    1   1.00
      0.6500000              1.0000000
D    1   1.00
      0.1625000              1.0000000
F    1   1.00
      0.2500000              1.0000000
****
Si     0
S    6   1.00
  16115.9000000              0.00195948
   2425.5800000              0.01492880
    553.8670000              0.07284780
    156.3400000              0.24613000
     50.0683000              0.48591400
     17.0178000              0.32500200
SP   6   1.00
    292.7180000             -0.00278094             0.00443826
     69.8731000             -0.03571460             0.03266790
     22.3363000             -0.11498500             0.13472100
      8.1503900              0.09356340             0.32867800
      3.1345800              0.60301700             0.44964000
      1.2254300              0.41895900             0.26137200
SP   3   1.00
      1.7273800             -0.24463000            -0.01779510
      0.5729220              0.00431572             0.25353900
      0.2221920              1.09818000             0.80066900
SP   1   1.00
      0.0778369              1.00000000             1.00000000
D    1   1.00
      0.9000000              1.0000000
D    1   1.00
      0.2250000              1.0000000
F    1   1.00
      0.3200000              1.0000000
****
P     0
S    6   1.00
  19413.3000000              0.0018516
   2909.4200000              0.0142062
    661.3640000              0.0699995
    185.7590000              0.2400790
     59.1943000              0.4847620
     20.0310000              0.3352000
SP   6   1.00
    339.4780000             -0.00278217             0.00456462
     81.0101000             -0.0360499              0.03369360
     25.8780000             -0.1166310              0.13975500
      9.4522100              0.0968328              0.33936200
      3.6656600              0.6144180              0.45092100
      1.4674600              0.4037980              0.23858600
SP   3   1.00
      2.1562300             -0.2529230             -0.01776530
      0.7489970              0.0328517              0.27405800
      0.2831450              1.0812500              0.78542100
SP   1   1.00
      0.0998317              1.0000000              1.00000000
D    1   1.00
      1.1000000              1.0000000
D    1   1.00
      0.2750000              1.0000000
F    1   1.00
      0.4500000              1.0000000
****
S     0
S    6   1.00
  21917.1000000              0.0018690
   3301.4900000              0.0142300
    754.1460000              0.0696960
    212.7110000              0.2384870
     67.9896000              0.4833070
     23.0515000              0.3380740
SP   6   1.00
    423.7350000             -0.0023767              0.0040610
    100.7100000             -0.0316930              0.0306810
     32.1599000             -0.1133170              0.1304520
     11.8079000              0.0560900              0.3272050
      4.6311000              0.5922550              0.4528510
      1.8702500              0.4550060              0.2560420
SP   3   1.00
      2.6158400             -0.2503740             -0.0145110
      0.9221670              0.0669570              0.3102630
      0.3412870              1.0545100              0.7544830
SP   1   1.00
      0.1171670              1.0000000              1.0000000
D    1   1.00
      1.3000000              1.0000000
D    1   1.00
      0.3250000              1.0000000
F    1   1.00
      0.5500000              1.0000000
****
Cl     0
S    6   1.00
  25180.1000000              0.0018330
   3780.3500000              0.0140340
    860.4740000              0.0690970
    242.1450000              0.2374520
     77.3349000              0.4830340
     26.2470000              0.3398560
SP   6   1.00
    491.7650000             -0.0022974              0.0039894
    116.9840000             -0.0307140              0.0303180
     37.4153000             -0.1125280              0.1298800
     13.7834000              0.0450160              0.3279510
      5.4521500              0.5893530              0.4535270
      2.2258800              0.4652060              0.2521540
SP   3   1.00
      3.1864900             -0.2518300             -0.0142990
      1.1442700              0.0615890              0.3235720
      0.4203770              1.0601800              0.7435070
SP   1   1.00
      0.1426570              1.0000000              1.0000000
D    1   1.00
      1.5000000              1.0000000
D    1   1.00
      0.3750000              1.0000000
F    1   1.00
      0.7000000              1.0000000
****
}

set {
reference uhf
freeze_core true
e_convergence 10
d_convergence 10
dft_spherical_points 1202
dft_radial_points 99
}

e = energy('b3lyp')

print_out('Grab this energy {0}'.format(e))
--------------------------------------------------------------------------

    Molecular point group: c1

    Geometry (in Bohr), charge = 0, multiplicity = 2:

       Center              X                  Y                   Z               Mass
    ------------   -----------------  -----------------  -----------------  -----------------
         C           -0.006451531470    -1.354509264115    -0.000959978501    12.000000000000
         C           -0.018406124970     1.465624260185     0.000956190399    12.000000000000
         H            1.927232754230    -2.103325096415    -0.002263041301     1.007825032230
         H           -0.946248370070    -2.114187225515     1.669917857799     1.007825032230
         H           -0.946125063670    -2.126725362615    -1.673646869201     1.007825032230
         H            0.130523041030     2.507870627885    -1.746984701401     1.007825032230
         H            0.130593495130     2.513339834485     1.753021858399     1.007825032230

  Charge       = 0
  Multiplicity = 2
  Basis Set: ANONYMOUSEEAFB245
    Blend: 6-31G_2DFP_
  Basis Set: (ANONYMOUSEEAFB245 AUX)
    Blend: DEF2-UNIVERSAL-JKFIT

    Orbital Energies [Eh]
    ---------------------

    Alpha Occupied:

       1A    -10.179530     2A    -10.174233     3A     -0.751487
       4A     -0.604939     5A     -0.445978     6A     -0.410894
       7A     -0.385265     8A     -0.354033     9A     -0.197311

    Alpha Virtual:

      10A      0.099041    11A      0.127989    12A      0.140780
      13A      0.165745    14A      0.203185    15A      0.247184
      16A      0.430338    17A      0.440648    18A      0.446224
      19A      0.450346    20A      0.478273    21A      0.520931
      22A      0.544136    23A      0.574320    24A      0.593960
      25A      0.618439    26A      0.634091    27A      0.639671
      28A      0.649805    29A      0.741109    30A      0.822229
      31A      0.865888    32A      0.932023    33A      0.976484
      34A      1.025718    35A      1.071035    36A      1.083253
      37A      1.085722    38A      1.180614    39A      1.220456
      40A      1.252395    41A      1.323016    42A      1.345447
      43A      1.367837    44A      1.421065    45A      1.444984
      46A      1.509720    47A      1.523943    48A      1.602978
      49A      1.765149    50A      1.805852    51A      1.951549
      52A      2.049456    53A      2.103493    54A      2.699167
      55A      2.800636    56A      2.828472    57A      2.860329
      58A      2.928860    59A      2.962899    60A      2.986560
      61A      3.080141    62A      3.094315    63A      3.159397
      64A      3.170000    65A      3.199111    66A      3.300439
      67A      3.356190    68A      3.391414    69A      3.493881
      70A      3.499203    71A      3.580177    72A      3.593795
      73A      3.712247    74A      3.805721    75A      3.974647
      76A      4.024104    77A      4.087510    78A      4.129850
      79A      4.189316    80A      4.197988    81A      4.205738
      82A      4.294485    83A      4.368521    84A      4.488337
      85A      4.503297    86A      4.525161    87A      4.864319
      88A      4.924447    89A      5.145323    90A      5.169238
      91A      5.279075    92A      5.327902

    Beta Occupied:

       1A    -10.175048     2A    -10.165582     3A     -0.734834
       4A     -0.580302     5A     -0.439817     6A     -0.396301
       7A     -0.377300     8A     -0.349602

    Beta Virtual:

       9A     -0.035959    10A      0.101689    11A      0.139126
      12A      0.142442    13A      0.170517    14A      0.206793
      15A      0.252941    16A      0.441690    17A      0.444938
      18A      0.456071    19A      0.459296    20A      0.487015
      21A      0.549372    22A      0.587655    23A      0.592485
      24A      0.602783    25A      0.623790    26A      0.641941
      27A      0.645404    28A      0.657256    29A      0.766463
      30A      0.822022    31A      0.868903    32A      0.949657
      33A      0.987613    34A      1.034462    35A      1.078895
      36A      1.089125    37A      1.101907    38A      1.184333
      39A      1.228180    40A      1.264685    41A      1.329471
      42A      1.352956    43A      1.374199    44A      1.427043
      45A      1.452518    46A      1.514301    47A      1.535193
      48A      1.614086    49A      1.771622    50A      1.812106
      51A      1.955977    52A      2.059415    53A      2.108998
      54A      2.722429    55A      2.822404    56A      2.830408
      57A      2.876443    58A      2.931400    59A      2.989886
      60A      3.023172    61A      3.093541    62A      3.121438
      63A      3.177191    64A      3.210051    65A      3.218241
      66A      3.339191    67A      3.369548    68A      3.409430
      69A      3.518558    70A      3.536718    71A      3.597277
      72A      3.604063    73A      3.730391    74A      3.806085
      75A      3.984729    76A      4.033944    77A      4.093944
      78A      4.139315    79A      4.202360    80A      4.204051
      81A      4.214996    82A      4.302528    83A      4.372787
      84A      4.495259    85A      4.513845    86A      4.532385
      87A      4.865678    88A      4.928700    89A      5.148720
      90A      5.180058    91A      5.286208    92A      5.330438

    Final Occupation by Irrep:
              A
    DOCC [     8 ]
    SOCC [     1 ]

  @DF-UKS Final Energy:   -79.16615069789731

   => Energetics <=

    Nuclear Repulsion Energy =             36.9262841033179754
    One-Electron Energy =                -178.0658966447526268
    Two-Electron Energy =                  72.2544801296918280
    DFT Exchange-Correlation Energy =     -10.2810182861544863
    Empirical Dispersion Energy =           0.0000000000000000
    VV10 Nonlocal Energy =                  0.0000000000000000
    Total Energy =                        -79.1661506978973080

  UHF NO Occupations:
  HONO-2 :    7  A 1.9997313
  HONO-1 :    8  A 1.9987074
  HONO-0 :    9  A 1.0000000
  LUNO+0 :   10  A 0.0012926
  LUNO+1 :   11  A 0.0002687
  LUNO+2 :   12  A 0.0002483
  LUNO+3 :   13  A 0.0002212

Computation Completed

Properties will be evaluated at   0.000000,   0.000000,   0.000000 [a0]

Properties computed using the SCF density matrix

  Nuclear Dipole Moment: [e a0]
     X:     0.1468      Y:    -0.6563      Z:     0.0000

  Electronic Dipole Moment: [e a0]
     X:    -0.1034      Y:     0.5711      Z:     0.0002

  Dipole Moment: [e a0]
     X:     0.0434      Y:    -0.0852      Z:     0.0003     Total:     0.0957

  Dipole Moment: [D]
     X:     0.1104      Y:    -0.2167      Z:     0.0007     Total:     0.2432

*** tstop() called on n067 at Fri Nov  5 19:23:08 2021
Module time:
	user time   =      50.16 seconds =       0.84 minutes
	system time =       0.59 seconds =       0.01 minutes
	total time  =         51 seconds =       0.85 minutes
Total time:
	user time   =      50.16 seconds =       0.84 minutes
	system time =       0.59 seconds =       0.01 minutes
	total time  =         51 seconds =       0.85 minutes
Grab this energy -79.16615069789731
    Psi4 stopped on: Friday, 05 November 2021 07:23PM
    Psi4 wall time for execution: 0:00:50.80

*** Psi4 exiting successfully. Buy a developer a beer!
