                               Psi4 1.4a2.dev629

  ==> Input File <==

--------------------------------------------------------------------------
import os
memory 14 GB

molecule {
 C   -0.0055036195   -1.3542677649    0.0000000000
 C   -0.0191106467    1.4644024718    0.0000000000
 H    1.9276088401   -2.1107552594    0.0000000000
 H   -0.9442391341   -2.1159541300    1.6718041746
 H   -0.9442391341   -2.1159541300   -1.6718041746
 H    0.1282681354    2.5104192724   -1.7421994458
 H    0.1282681354    2.5104192724    1.7421994458
units bohr
0 2
}

basis {

assign 6-31g_2dfp_

[ 6-31g_2dfp_ ]

spherical

!----------------------------------------------------------------------
! Basis Set Exchange
! Version v0.8.13
! https://www.basissetexchange.org
!----------------------------------------------------------------------
!   Basis set: 6-31G(2df,p)
! Description: 6-31G(2df,p)
!        Role: orbital
!     Version: 0  (Data from the original Basis Set Exchange)
!----------------------------------------------------------------------

****
H     0
S    3   1.00
     18.7311370              0.03349460
      2.8253937              0.23472695
      0.6401217              0.81375733
S    1   1.00
      0.1612778              1.00000000
P    1   1.00
      1.5000000              1.0000000
P    1   1.00
      0.3750000              1.0000000
****
B     0
S    6   1.00
   2068.8823000              0.0018663
    310.6495700              0.0142515
     70.6830330              0.0695516
     19.8610800              0.2325729
      6.2993048              0.4670787
      2.1270270              0.3634314
SP   3   1.00
      4.7279710             -0.1303938              0.0745976
      1.1903377             -0.1307889              0.3078467
      0.3594117              1.1309444              0.7434568
SP   1   1.00
      0.1267512              1.0000000              1.0000000
D    1   1.00
      0.8020000              1.0000000
D    1   1.00
      0.2005000              1.0000000
F    1   1.00
      0.5000000              1.0000000
****
C     0
S    6   1.00
   3047.5249000              0.0018347
    457.3695100              0.0140373
    103.9486900              0.0688426
     29.2101550              0.2321844
      9.2866630              0.4679413
      3.1639270              0.3623120
SP   3   1.00
      7.8682724             -0.1193324              0.0689991
      1.8812885             -0.1608542              0.3164240
      0.5442493              1.1434564              0.7443083
SP   1   1.00
      0.1687144              1.0000000              1.0000000
D    1   1.00
      1.2520000              1.0000000
D    1   1.00
      0.3130000              1.0000000
F    1   1.00
      0.8000000              1.0000000
****
N     0
S    6   1.00
   4173.5110000              0.0018348
    627.4579000              0.0139950
    142.9021000              0.0685870
     40.2343300              0.2322410
     12.8202100              0.4690700
      4.3904370              0.3604550
SP   3   1.00
     11.6263580             -0.1149610              0.0675800
      2.7162800             -0.1691180              0.3239070
      0.7722180              1.1458520              0.7408950
SP   1   1.00
      0.2120313              1.0000000              1.0000000
D    1   1.00
      1.8260000              1.0000000
D    1   1.00
      0.4565000              1.0000000
F    1   1.00
      1.0000000              1.0000000
****
O     0
S    6   1.00
   5484.6717000              0.0018311
    825.2349500              0.0139501
    188.0469600              0.0684451
     52.9645000              0.2327143
     16.8975700              0.4701930
      5.7996353              0.3585209
SP   3   1.00
     15.5396160             -0.1107775              0.0708743
      3.5999336             -0.1480263              0.3397528
      1.0137618              1.1307670              0.7271586
SP   1   1.00
      0.2700058              1.0000000              1.0000000
D    1   1.00
      2.5840000              1.0000000
D    1   1.00
      0.6460000              1.0000000
F    1   1.00
      1.4000000              1.0000000
****
F     0
S    6   1.00
   7001.7130900              0.0018196169
   1051.3660900              0.0139160796
    239.2856900              0.0684053245
     67.3974453              0.233185760
     21.5199573              0.471267439
      7.40310130             0.356618546
SP   3   1.00
     20.8479528             -0.108506975            0.0716287243
      4.80830834            -0.146451658            0.3459121030
      1.34406986             1.128688580            0.7224699570
SP   1   1.00
      0.358151393            1.0000000              1.0000000
D    1   1.00
      3.5000000              1.0000000
D    1   1.00
      0.8750000              1.0000000
F    1   1.00
      1.8500000              1.0000000
****
Al     0
S    6   1.00
  13983.1000000              0.00194267
   2098.7500000              0.0148599
    477.7050000              0.0728494
    134.3600000              0.2468300
     42.8709000              0.4872580
     14.5189000              0.3234960
SP   6   1.00
    239.6680000             -0.00292619             0.00460285
     57.4419000             -0.0374080              0.0331990
     18.2859000             -0.1144870              0.1362820
      6.5991400              0.1156350              0.3304760
      2.4904900              0.6125950              0.4491460
      0.9445400              0.3937990              0.2657040
SP   3   1.00
      1.2779000             -0.2276060             -0.0175130
      0.3975900              0.00144583             0.2445330
      0.1600950              1.0927900              0.8049340
SP   1   1.00
      0.0556577              1.0000000              1.0000000
D    1   1.00
      0.6500000              1.0000000
D    1   1.00
      0.1625000              1.0000000
F    1   1.00
      0.2500000              1.0000000
****
Si     0
S    6   1.00
  16115.9000000              0.00195948
   2425.5800000              0.01492880
    553.8670000              0.07284780
    156.3400000              0.24613000
     50.0683000              0.48591400
     17.0178000              0.32500200
SP   6   1.00
    292.7180000             -0.00278094             0.00443826
     69.8731000             -0.03571460             0.03266790
     22.3363000             -0.11498500             0.13472100
      8.1503900              0.09356340             0.32867800
      3.1345800              0.60301700             0.44964000
      1.2254300              0.41895900             0.26137200
SP   3   1.00
      1.7273800             -0.24463000            -0.01779510
      0.5729220              0.00431572             0.25353900
      0.2221920              1.09818000             0.80066900
SP   1   1.00
      0.0778369              1.00000000             1.00000000
D    1   1.00
      0.9000000              1.0000000
D    1   1.00
      0.2250000              1.0000000
F    1   1.00
      0.3200000              1.0000000
****
P     0
S    6   1.00
  19413.3000000              0.0018516
   2909.4200000              0.0142062
    661.3640000              0.0699995
    185.7590000              0.2400790
     59.1943000              0.4847620
     20.0310000              0.3352000
SP   6   1.00
    339.4780000             -0.00278217             0.00456462
     81.0101000             -0.0360499              0.03369360
     25.8780000             -0.1166310              0.13975500
      9.4522100              0.0968328              0.33936200
      3.6656600              0.6144180              0.45092100
      1.4674600              0.4037980              0.23858600
SP   3   1.00
      2.1562300             -0.2529230             -0.01776530
      0.7489970              0.0328517              0.27405800
      0.2831450              1.0812500              0.78542100
SP   1   1.00
      0.0998317              1.0000000              1.00000000
D    1   1.00
      1.1000000              1.0000000
D    1   1.00
      0.2750000              1.0000000
F    1   1.00
      0.4500000              1.0000000
****
S     0
S    6   1.00
  21917.1000000              0.0018690
   3301.4900000              0.0142300
    754.1460000              0.0696960
    212.7110000              0.2384870
     67.9896000              0.4833070
     23.0515000              0.3380740
SP   6   1.00
    423.7350000             -0.0023767              0.0040610
    100.7100000             -0.0316930              0.0306810
     32.1599000             -0.1133170              0.1304520
     11.8079000              0.0560900              0.3272050
      4.6311000              0.5922550              0.4528510
      1.8702500              0.4550060              0.2560420
SP   3   1.00
      2.6158400             -0.2503740             -0.0145110
      0.9221670              0.0669570              0.3102630
      0.3412870              1.0545100              0.7544830
SP   1   1.00
      0.1171670              1.0000000              1.0000000
D    1   1.00
      1.3000000              1.0000000
D    1   1.00
      0.3250000              1.0000000
F    1   1.00
      0.5500000              1.0000000
****
Cl     0
S    6   1.00
  25180.1000000              0.0018330
   3780.3500000              0.0140340
    860.4740000              0.0690970
    242.1450000              0.2374520
     77.3349000              0.4830340
     26.2470000              0.3398560
SP   6   1.00
    491.7650000             -0.0022974              0.0039894
    116.9840000             -0.0307140              0.0303180
     37.4153000             -0.1125280              0.1298800
     13.7834000              0.0450160              0.3279510
      5.4521500              0.5893530              0.4535270
      2.2258800              0.4652060              0.2521540
SP   3   1.00
      3.1864900             -0.2518300             -0.0142990
      1.1442700              0.0615890              0.3235720
      0.4203770              1.0601800              0.7435070
SP   1   1.00
      0.1426570              1.0000000              1.0000000
D    1   1.00
      1.5000000              1.0000000
D    1   1.00
      0.3750000              1.0000000
F    1   1.00
      0.7000000              1.0000000
****
}

set {
reference uhf
freeze_core true
e_convergence 10
d_convergence 10
dft_spherical_points 1202
dft_radial_points 99
}

e = energy('b3lyp')

print_out('Grab this energy {0}'.format(e))
--------------------------------------------------------------------------

    Molecular point group: cs

    Geometry (in Bohr), charge = 0, multiplicity = 2:

       Center              X                  Y                   Z               Mass
    ------------   -----------------  -----------------  -----------------  -----------------
         C           -0.005593472444    -1.353904399448     0.000000000000    12.000000000000
         C           -0.019200499644     1.464765837252     0.000000000000    12.000000000000
         H            1.927518987156    -2.110391893948     0.000000000000     1.007825032230
         H           -0.944328987044    -2.115590764548     1.671804174600     1.007825032230
         H           -0.944328987044    -2.115590764548    -1.671804174600     1.007825032230
         H            0.128178282456     2.510782637852    -1.742199445800     1.007825032230
         H            0.128178282456     2.510782637852     1.742199445800     1.007825032230

  Charge       = 0
  Multiplicity = 2
  Basis Set: ANONYMOUSA2690B9F
    Blend: 6-31G_2DFP_
  Basis Set: (ANONYMOUSA2690B9F AUX)
    Blend: DEF2-UNIVERSAL-JKFIT

    Orbital Energies [Eh]
    ---------------------

    Alpha Occupied:

       1Ap   -10.178806     2Ap   -10.174092     3Ap    -0.751797
       4Ap    -0.605556     1App   -0.446447     5Ap    -0.410668
       6Ap    -0.385685     2App   -0.354366     7Ap    -0.197287

    Alpha Virtual:

       8Ap     0.099338     9Ap     0.128515     3App    0.141336
      10Ap     0.165813     4App    0.203697    11Ap     0.247673
      12Ap     0.430475     5App    0.440736    13Ap     0.446312
       6App    0.449958    14Ap     0.478811    15Ap     0.520977
      16Ap     0.544033     7App    0.574860    17Ap     0.594930
       8App    0.619177    18Ap     0.634303    19Ap     0.640064
       9App    0.651138    20Ap     0.741326    10App    0.823693
      11App    0.865993    21Ap     0.931405    22Ap     0.978777
      12App    1.025140    13App    1.072536    23Ap     1.083679
      24Ap     1.086985    25Ap     1.179917    14App    1.220607
      26Ap     1.254319    15App    1.324149    27Ap     1.345325
      28Ap     1.367891    29Ap     1.420883    16App    1.446300
      17App    1.511800    30Ap     1.524967    31Ap     1.606873
      32Ap     1.766370    33Ap     1.807756    18App    1.952620
      19App    2.055391    34Ap     2.104019    35Ap     2.698532
      36Ap     2.801591    20App    2.830009    21App    2.860964
      22App    2.929002    37Ap     2.963955    38Ap     2.986893
      23App    3.079466    39Ap     3.092803    24App    3.158235
      40Ap     3.170963    25App    3.199564    26App    3.299048
      41Ap     3.359422    42Ap     3.389549    43Ap     3.494046
      27App    3.499462    28App    3.582013    44Ap     3.594957
      45Ap     3.713614    29App    3.807065    46Ap     3.974658
      47Ap     4.025535    48Ap     4.092247    49Ap     4.131207
      30App    4.194267    31App    4.199805    50Ap     4.206288
      51Ap     4.296439    32App    4.369681    33App    4.492812
      52Ap     4.502678    53Ap     4.529221    34App    4.871750
      54Ap     4.925261    35App    5.158261    55Ap     5.172050
      56Ap     5.280133    36App    5.331417

    Beta Occupied:

       1Ap   -10.174912     2Ap   -10.164875     3Ap    -0.735098
       4Ap    -0.581008     1App   -0.440273     5Ap    -0.395995
       6Ap    -0.377746     2App   -0.349901

    Beta Virtual:

       7Ap    -0.036059     8Ap     0.101900     9Ap     0.139679
       3App    0.142930    10Ap     0.170645     4App    0.207286
      11Ap     0.253404     5App    0.441811    12Ap     0.445084
       6App    0.455660    13Ap     0.459322    14Ap     0.487845
      15Ap     0.549302     7App    0.588329    16Ap     0.592430
      17Ap     0.603619     8App    0.624571    18Ap     0.642169
      19Ap     0.645960     9App    0.658587    20Ap     0.766592
      10App    0.823526    11App    0.869030    21Ap     0.949101
      22Ap     0.989970    12App    1.033747    13App    1.080442
      23Ap     1.088261    24Ap     1.104432    25Ap     1.183577
      14App    1.228347    26Ap     1.266660    15App    1.330652
      27Ap     1.352839    28Ap     1.374206    29Ap     1.426835
      16App    1.453786    17App    1.516421    30Ap     1.536397
      31Ap     1.617857    32Ap     1.772925    33Ap     1.814015
      18App    1.957053    19App    2.065441    34Ap     2.109536
      35Ap     2.721756    36Ap     2.823362    20App    2.831943
      21App    2.877002    22App    2.931512    37Ap     2.990531
      38Ap     3.023799    23App    3.092923    39Ap     3.120262
      24App    3.175847    40Ap     3.210976    25App    3.217760
      26App    3.338481    41Ap     3.371935    42Ap     3.408516
      27App    3.519074    43Ap     3.536755    28App    3.598920
      44Ap     3.605102    45Ap     3.731620    29App    3.807399
      46Ap     3.985023    47Ap     4.035620    48Ap     4.098125
      49Ap     4.140681    30App    4.203536    31App    4.209757
      50Ap     4.215665    51Ap     4.304495    32App    4.373962
      33App    4.499895    52Ap     4.513321    53Ap     4.536447
      34App    4.873133    54Ap     4.929565    35App    5.161612
      55Ap     5.183003    56Ap     5.287263    36App    5.333965

    Final Occupation by Irrep:
             Ap   App
    DOCC [     6,    2 ]
    SOCC [     1,    0 ]

  @DF-UKS Final Energy:   -79.16613939072730

   => Energetics <=

    Nuclear Repulsion Energy =             36.9600793714228502
    One-Electron Energy =                -178.1296944855086224
    Two-Electron Energy =                  72.2869529987804924
    DFT Exchange-Correlation Energy =     -10.2834772754220047
    Empirical Dispersion Energy =           0.0000000000000000
    VV10 Nonlocal Energy =                  0.0000000000000000
    Total Energy =                        -79.1661393907272952

  UHF NO Occupations:
  HONO-2 :    2App 1.9997342
  HONO-1 :    6 Ap 1.9987166
  HONO-0 :    7 Ap 1.0000000
  LUNO+0 :    8 Ap 0.0012834
  LUNO+1 :    3App 0.0002658
  LUNO+2 :    9 Ap 0.0002498
  LUNO+3 :   10 Ap 0.0002208

Computation Completed

Properties will be evaluated at   0.000000,   0.000000,   0.000000 [a0]

Properties computed using the SCF density matrix

  Nuclear Dipole Moment: [e a0]
     X:     0.1465      Y:    -0.6548      Z:     0.0000

  Electronic Dipole Moment: [e a0]
     X:    -0.1038      Y:     0.5705      Z:     0.0000

  Dipole Moment: [e a0]
     X:     0.0427      Y:    -0.0844      Z:     0.0000     Total:     0.0946

  Dipole Moment: [D]
     X:     0.1085      Y:    -0.2144      Z:     0.0000     Total:     0.2403

*** tstop() called on n073 at Fri Nov  5 19:20:54 2021
Module time:
	user time   =      51.20 seconds =       0.85 minutes
	system time =       0.62 seconds =       0.01 minutes
	total time  =         52 seconds =       0.87 minutes
Total time:
	user time   =      51.20 seconds =       0.85 minutes
	system time =       0.62 seconds =       0.01 minutes
	total time  =         52 seconds =       0.87 minutes
Grab this energy -79.1661393907273
    Psi4 stopped on: Friday, 05 November 2021 07:20PM
    Psi4 wall time for execution: 0:00:51.85

*** Psi4 exiting successfully. Buy a developer a beer!
