                               Psi4 1.4a2.dev629

  ==> Input File <==

--------------------------------------------------------------------------
import os
memory 14 GB

molecule {
 C   -0.0013663868   -1.3543031895   -0.0000000000
 C   -0.0171935528    1.4653748625   -0.0000000000
 H    1.9221840097   -2.1110902073   -0.0000000000
 H   -0.9435004160   -2.1164143582    1.6760378534
 H   -0.9435004160   -2.1164143582   -1.6760378534
 H    0.1272146691    2.5105784914   -1.7495660126
 H    0.1272146691    2.5105784914    1.7495660126
units bohr
0 2
}

basis {

assign 6-31g_2dfp_

[ 6-31g_2dfp_ ]

spherical

!----------------------------------------------------------------------
! Basis Set Exchange
! Version v0.8.13
! https://www.basissetexchange.org
!----------------------------------------------------------------------
!   Basis set: 6-31G(2df,p)
! Description: 6-31G(2df,p)
!        Role: orbital
!     Version: 0  (Data from the original Basis Set Exchange)
!----------------------------------------------------------------------

****
H     0
S    3   1.00
     18.7311370              0.03349460
      2.8253937              0.23472695
      0.6401217              0.81375733
S    1   1.00
      0.1612778              1.00000000
P    1   1.00
      1.5000000              1.0000000
P    1   1.00
      0.3750000              1.0000000
****
B     0
S    6   1.00
   2068.8823000              0.0018663
    310.6495700              0.0142515
     70.6830330              0.0695516
     19.8610800              0.2325729
      6.2993048              0.4670787
      2.1270270              0.3634314
SP   3   1.00
      4.7279710             -0.1303938              0.0745976
      1.1903377             -0.1307889              0.3078467
      0.3594117              1.1309444              0.7434568
SP   1   1.00
      0.1267512              1.0000000              1.0000000
D    1   1.00
      0.8020000              1.0000000
D    1   1.00
      0.2005000              1.0000000
F    1   1.00
      0.5000000              1.0000000
****
C     0
S    6   1.00
   3047.5249000              0.0018347
    457.3695100              0.0140373
    103.9486900              0.0688426
     29.2101550              0.2321844
      9.2866630              0.4679413
      3.1639270              0.3623120
SP   3   1.00
      7.8682724             -0.1193324              0.0689991
      1.8812885             -0.1608542              0.3164240
      0.5442493              1.1434564              0.7443083
SP   1   1.00
      0.1687144              1.0000000              1.0000000
D    1   1.00
      1.2520000              1.0000000
D    1   1.00
      0.3130000              1.0000000
F    1   1.00
      0.8000000              1.0000000
****
N     0
S    6   1.00
   4173.5110000              0.0018348
    627.4579000              0.0139950
    142.9021000              0.0685870
     40.2343300              0.2322410
     12.8202100              0.4690700
      4.3904370              0.3604550
SP   3   1.00
     11.6263580             -0.1149610              0.0675800
      2.7162800             -0.1691180              0.3239070
      0.7722180              1.1458520              0.7408950
SP   1   1.00
      0.2120313              1.0000000              1.0000000
D    1   1.00
      1.8260000              1.0000000
D    1   1.00
      0.4565000              1.0000000
F    1   1.00
      1.0000000              1.0000000
****
O     0
S    6   1.00
   5484.6717000              0.0018311
    825.2349500              0.0139501
    188.0469600              0.0684451
     52.9645000              0.2327143
     16.8975700              0.4701930
      5.7996353              0.3585209
SP   3   1.00
     15.5396160             -0.1107775              0.0708743
      3.5999336             -0.1480263              0.3397528
      1.0137618              1.1307670              0.7271586
SP   1   1.00
      0.2700058              1.0000000              1.0000000
D    1   1.00
      2.5840000              1.0000000
D    1   1.00
      0.6460000              1.0000000
F    1   1.00
      1.4000000              1.0000000
****
F     0
S    6   1.00
   7001.7130900              0.0018196169
   1051.3660900              0.0139160796
    239.2856900              0.0684053245
     67.3974453              0.233185760
     21.5199573              0.471267439
      7.40310130             0.356618546
SP   3   1.00
     20.8479528             -0.108506975            0.0716287243
      4.80830834            -0.146451658            0.3459121030
      1.34406986             1.128688580            0.7224699570
SP   1   1.00
      0.358151393            1.0000000              1.0000000
D    1   1.00
      3.5000000              1.0000000
D    1   1.00
      0.8750000              1.0000000
F    1   1.00
      1.8500000              1.0000000
****
Al     0
S    6   1.00
  13983.1000000              0.00194267
   2098.7500000              0.0148599
    477.7050000              0.0728494
    134.3600000              0.2468300
     42.8709000              0.4872580
     14.5189000              0.3234960
SP   6   1.00
    239.6680000             -0.00292619             0.00460285
     57.4419000             -0.0374080              0.0331990
     18.2859000             -0.1144870              0.1362820
      6.5991400              0.1156350              0.3304760
      2.4904900              0.6125950              0.4491460
      0.9445400              0.3937990              0.2657040
SP   3   1.00
      1.2779000             -0.2276060             -0.0175130
      0.3975900              0.00144583             0.2445330
      0.1600950              1.0927900              0.8049340
SP   1   1.00
      0.0556577              1.0000000              1.0000000
D    1   1.00
      0.6500000              1.0000000
D    1   1.00
      0.1625000              1.0000000
F    1   1.00
      0.2500000              1.0000000
****
Si     0
S    6   1.00
  16115.9000000              0.00195948
   2425.5800000              0.01492880
    553.8670000              0.07284780
    156.3400000              0.24613000
     50.0683000              0.48591400
     17.0178000              0.32500200
SP   6   1.00
    292.7180000             -0.00278094             0.00443826
     69.8731000             -0.03571460             0.03266790
     22.3363000             -0.11498500             0.13472100
      8.1503900              0.09356340             0.32867800
      3.1345800              0.60301700             0.44964000
      1.2254300              0.41895900             0.26137200
SP   3   1.00
      1.7273800             -0.24463000            -0.01779510
      0.5729220              0.00431572             0.25353900
      0.2221920              1.09818000             0.80066900
SP   1   1.00
      0.0778369              1.00000000             1.00000000
D    1   1.00
      0.9000000              1.0000000
D    1   1.00
      0.2250000              1.0000000
F    1   1.00
      0.3200000              1.0000000
****
P     0
S    6   1.00
  19413.3000000              0.0018516
   2909.4200000              0.0142062
    661.3640000              0.0699995
    185.7590000              0.2400790
     59.1943000              0.4847620
     20.0310000              0.3352000
SP   6   1.00
    339.4780000             -0.00278217             0.00456462
     81.0101000             -0.0360499              0.03369360
     25.8780000             -0.1166310              0.13975500
      9.4522100              0.0968328              0.33936200
      3.6656600              0.6144180              0.45092100
      1.4674600              0.4037980              0.23858600
SP   3   1.00
      2.1562300             -0.2529230             -0.01776530
      0.7489970              0.0328517              0.27405800
      0.2831450              1.0812500              0.78542100
SP   1   1.00
      0.0998317              1.0000000              1.00000000
D    1   1.00
      1.1000000              1.0000000
D    1   1.00
      0.2750000              1.0000000
F    1   1.00
      0.4500000              1.0000000
****
S     0
S    6   1.00
  21917.1000000              0.0018690
   3301.4900000              0.0142300
    754.1460000              0.0696960
    212.7110000              0.2384870
     67.9896000              0.4833070
     23.0515000              0.3380740
SP   6   1.00
    423.7350000             -0.0023767              0.0040610
    100.7100000             -0.0316930              0.0306810
     32.1599000             -0.1133170              0.1304520
     11.8079000              0.0560900              0.3272050
      4.6311000              0.5922550              0.4528510
      1.8702500              0.4550060              0.2560420
SP   3   1.00
      2.6158400             -0.2503740             -0.0145110
      0.9221670              0.0669570              0.3102630
      0.3412870              1.0545100              0.7544830
SP   1   1.00
      0.1171670              1.0000000              1.0000000
D    1   1.00
      1.3000000              1.0000000
D    1   1.00
      0.3250000              1.0000000
F    1   1.00
      0.5500000              1.0000000
****
Cl     0
S    6   1.00
  25180.1000000              0.0018330
   3780.3500000              0.0140340
    860.4740000              0.0690970
    242.1450000              0.2374520
     77.3349000              0.4830340
     26.2470000              0.3398560
SP   6   1.00
    491.7650000             -0.0022974              0.0039894
    116.9840000             -0.0307140              0.0303180
     37.4153000             -0.1125280              0.1298800
     13.7834000              0.0450160              0.3279510
      5.4521500              0.5893530              0.4535270
      2.2258800              0.4652060              0.2521540
SP   3   1.00
      3.1864900             -0.2518300             -0.0142990
      1.1442700              0.0615890              0.3235720
      0.4203770              1.0601800              0.7435070
SP   1   1.00
      0.1426570              1.0000000              1.0000000
D    1   1.00
      1.5000000              1.0000000
D    1   1.00
      0.3750000              1.0000000
F    1   1.00
      0.7000000              1.0000000
****
}

set {
reference uhf
freeze_core true
e_convergence 10
d_convergence 10
dft_spherical_points 1202
dft_radial_points 99
}

e = energy('b3lyp')

print_out('Grab this energy {0}'.format(e))
--------------------------------------------------------------------------

    Molecular point group: cs

    Geometry (in Bohr), charge = 0, multiplicity = 2:

       Center              X                  Y                   Z               Mass
    ------------   -----------------  -----------------  -----------------  -----------------
         C           -0.003747982925    -1.354294493655     0.000000000000    12.000000000000
         C           -0.019575148925     1.465383558345     0.000000000000    12.000000000000
         H            1.919802413575    -2.111081511455     0.000000000000     1.007825032230
         H           -0.945882012125    -2.116405662355     1.676037853400     1.007825032230
         H           -0.945882012125    -2.116405662355    -1.676037853400     1.007825032230
         H            0.124833072975     2.510587187245    -1.749566012600     1.007825032230
         H            0.124833072975     2.510587187245     1.749566012600     1.007825032230

  Charge       = 0
  Multiplicity = 2
  Basis Set: ANONYMOUS4E2B91AC
    Blend: 6-31G_2DFP_
  Basis Set: (ANONYMOUS4E2B91AC AUX)
    Blend: DEF2-UNIVERSAL-JKFIT

    Orbital Energies [Eh]
    ---------------------

    Alpha Occupied:

       1Ap   -10.179476     2Ap   -10.174181     3Ap    -0.751551
       4Ap    -0.604995     1App   -0.446067     5Ap    -0.411066
       6Ap    -0.385164     2App   -0.353944     7Ap    -0.197384

    Alpha Virtual:

       8Ap     0.098984     9Ap     0.128130     3App    0.140480
      10Ap     0.166406     4App    0.203177    11Ap     0.247129
      12Ap     0.430297     5App    0.440908    13Ap     0.446269
       6App    0.450041    14Ap     0.478418    15Ap     0.521188
      16Ap     0.543883     7App    0.573921    17Ap     0.594136
       8App    0.618256    18Ap     0.635679    19Ap     0.638991
       9App    0.649938    20Ap     0.741344    10App    0.822601
      11App    0.865746    21Ap     0.931443    22Ap     0.977570
      12App    1.024646    13App    1.071599    23Ap     1.083273
      24Ap     1.085122    25Ap     1.179777    14App    1.219772
      26Ap     1.254990    15App    1.323484    27Ap     1.344269
      28Ap     1.367753    29Ap     1.422120    16App    1.444878
      17App    1.510415    30Ap     1.523480    31Ap     1.603552
      32Ap     1.767631    33Ap     1.803710    18App    1.949765
      19App    2.050061    34Ap     2.105718    35Ap     2.698768
      36Ap     2.801355    20App    2.828520    21App    2.859471
      22App    2.928766    37Ap     2.963511    38Ap     2.987112
      23App    3.079682    39Ap     3.092379    24App    3.159223
      40Ap     3.171116    25App    3.199770    26App    3.300107
      41Ap     3.358412    42Ap     3.389578    43Ap     3.494619
      27App    3.500793    28App    3.580099    44Ap     3.593406
      45Ap     3.711845    29App    3.807324    46Ap     3.974048
      47Ap     4.024341    48Ap     4.086797    49Ap     4.129947
      30App    4.189353    31App    4.199032    50Ap     4.205676
      51Ap     4.294315    32App    4.367754    33App    4.488363
      52Ap     4.506162    53Ap     4.525860    34App    4.863538
      54Ap     4.924620    35App    5.145551    55Ap     5.170127
      56Ap     5.282941    36App    5.325306

    Beta Occupied:

       1Ap   -10.174997     2Ap   -10.165531     3Ap    -0.734880
       4Ap    -0.580348     1App   -0.439886     5Ap    -0.396464
       6Ap    -0.377259     2App   -0.349501

    Beta Virtual:

       7Ap    -0.036040     8Ap     0.101629     9Ap     0.139291
       3App    0.142095    10Ap     0.171198     4App    0.206791
      11Ap     0.252863     5App    0.441938    12Ap     0.444847
       6App    0.455783    13Ap     0.459205    14Ap     0.487455
      15Ap     0.549355     7App    0.587197    16Ap     0.592467
      17Ap     0.602913     8App    0.623723    18Ap     0.643207
      19Ap     0.645048     9App    0.657405    20Ap     0.766722
      10App    0.822384    11App    0.868764    21Ap     0.948998
      22Ap     0.988812    12App    1.033192    13App    1.079631
      23Ap     1.088386    24Ap     1.102031    25Ap     1.183437
      14App    1.227580    26Ap     1.267233    15App    1.329933
      27Ap     1.351786    28Ap     1.374123    29Ap     1.428079
      16App    1.452418    17App    1.515008    30Ap     1.534684
      31Ap     1.614651    32Ap     1.774010    33Ap     1.810071
      18App    1.954214    19App    2.060018    34Ap     2.111239
      35Ap     2.722049    36Ap     2.823281    20App    2.830336
      21App    2.875540    22App    2.931283    37Ap     2.990765
      38Ap     3.023543    23App    3.093192    39Ap     3.119571
      24App    3.176879    40Ap     3.211129    25App    3.218904
      26App    3.338917    41Ap     3.370962    42Ap     3.408160
      27App    3.520663    43Ap     3.537701    28App    3.596686
      44Ap     3.603633    45Ap     3.729968    29App    3.807710
      46Ap     3.984648    47Ap     4.033378    48Ap     4.093146
      49Ap     4.139493    30App    4.201742    31App    4.205532
      50Ap     4.215119    51Ap     4.302167    32App    4.372065
      33App    4.495466    52Ap     4.516768    53Ap     4.533230
      34App    4.864897    54Ap     4.928824    35App    5.148836
      55Ap     5.181049    56Ap     5.290091    36App    5.327887

    Final Occupation by Irrep:
             Ap   App
    DOCC [     6,    2 ]
    SOCC [     1,    0 ]

  @DF-UKS Final Energy:   -79.16614186815070

   => Energetics <=

    Nuclear Repulsion Energy =             36.9314795164465153
    One-Electron Energy =                -178.0758202472895846
    Two-Electron Energy =                  72.2595242379314300
    DFT Exchange-Correlation Energy =     -10.2813253752390761
    Empirical Dispersion Energy =           0.0000000000000000
    VV10 Nonlocal Energy =                  0.0000000000000000
    Total Energy =                        -79.1661418681507030

  UHF NO Occupations:
  HONO-2 :    2App 1.9997315
  HONO-1 :    6 Ap 1.9987080
  HONO-0 :    7 Ap 1.0000000
  LUNO+0 :    8 Ap 0.0012920
  LUNO+1 :    3App 0.0002685
  LUNO+2 :    9 Ap 0.0002454
  LUNO+3 :   10 Ap 0.0002212

Computation Completed

Properties will be evaluated at   0.000000,   0.000000,   0.000000 [a0]

Properties computed using the SCF density matrix

  Nuclear Dipole Moment: [e a0]
     X:     0.1378      Y:    -0.6562      Z:     0.0000

  Electronic Dipole Moment: [e a0]
     X:    -0.0941      Y:     0.5713      Z:     0.0000

  Dipole Moment: [e a0]
     X:     0.0437      Y:    -0.0849      Z:     0.0000     Total:     0.0955

  Dipole Moment: [D]
     X:     0.1110      Y:    -0.2157      Z:     0.0000     Total:     0.2426

*** tstop() called on n044 at Fri Nov  5 18:22:25 2021
Module time:
	user time   =      66.05 seconds =       1.10 minutes
	system time =       0.48 seconds =       0.01 minutes
	total time  =         67 seconds =       1.12 minutes
Total time:
	user time   =      66.05 seconds =       1.10 minutes
	system time =       0.48 seconds =       0.01 minutes
	total time  =         67 seconds =       1.12 minutes
Grab this energy -79.1661418681507
    Psi4 stopped on: Friday, 05 November 2021 06:22PM
    Psi4 wall time for execution: 0:01:06.58

*** Psi4 exiting successfully. Buy a developer a beer!
