                               Psi4 1.4a2.dev629

  ==> Input File <==

--------------------------------------------------------------------------
import os
memory 14 GB

molecule {
 C   -0.0055421654   -1.3515756599    0.0009667497
 C   -0.0194497525    1.4650969856   -0.0009500716
 H    1.9279550431   -2.1125142293    0.0022679007
 H   -0.9441359481   -2.1232141622    1.6739308744
 H   -0.9442540943   -2.1106738702   -1.6701899905
 H    0.1282731073    2.5133286441   -1.7525113975
 H    0.1282063863    2.5078620241    1.7464859347
units bohr
0 2
}

basis {

assign 6-31g_2dfp_

[ 6-31g_2dfp_ ]

spherical

!----------------------------------------------------------------------
! Basis Set Exchange
! Version v0.8.13
! https://www.basissetexchange.org
!----------------------------------------------------------------------
!   Basis set: 6-31G(2df,p)
! Description: 6-31G(2df,p)
!        Role: orbital
!     Version: 0  (Data from the original Basis Set Exchange)
!----------------------------------------------------------------------

****
H     0
S    3   1.00
     18.7311370              0.03349460
      2.8253937              0.23472695
      0.6401217              0.81375733
S    1   1.00
      0.1612778              1.00000000
P    1   1.00
      1.5000000              1.0000000
P    1   1.00
      0.3750000              1.0000000
****
B     0
S    6   1.00
   2068.8823000              0.0018663
    310.6495700              0.0142515
     70.6830330              0.0695516
     19.8610800              0.2325729
      6.2993048              0.4670787
      2.1270270              0.3634314
SP   3   1.00
      4.7279710             -0.1303938              0.0745976
      1.1903377             -0.1307889              0.3078467
      0.3594117              1.1309444              0.7434568
SP   1   1.00
      0.1267512              1.0000000              1.0000000
D    1   1.00
      0.8020000              1.0000000
D    1   1.00
      0.2005000              1.0000000
F    1   1.00
      0.5000000              1.0000000
****
C     0
S    6   1.00
   3047.5249000              0.0018347
    457.3695100              0.0140373
    103.9486900              0.0688426
     29.2101550              0.2321844
      9.2866630              0.4679413
      3.1639270              0.3623120
SP   3   1.00
      7.8682724             -0.1193324              0.0689991
      1.8812885             -0.1608542              0.3164240
      0.5442493              1.1434564              0.7443083
SP   1   1.00
      0.1687144              1.0000000              1.0000000
D    1   1.00
      1.2520000              1.0000000
D    1   1.00
      0.3130000              1.0000000
F    1   1.00
      0.8000000              1.0000000
****
N     0
S    6   1.00
   4173.5110000              0.0018348
    627.4579000              0.0139950
    142.9021000              0.0685870
     40.2343300              0.2322410
     12.8202100              0.4690700
      4.3904370              0.3604550
SP   3   1.00
     11.6263580             -0.1149610              0.0675800
      2.7162800             -0.1691180              0.3239070
      0.7722180              1.1458520              0.7408950
SP   1   1.00
      0.2120313              1.0000000              1.0000000
D    1   1.00
      1.8260000              1.0000000
D    1   1.00
      0.4565000              1.0000000
F    1   1.00
      1.0000000              1.0000000
****
O     0
S    6   1.00
   5484.6717000              0.0018311
    825.2349500              0.0139501
    188.0469600              0.0684451
     52.9645000              0.2327143
     16.8975700              0.4701930
      5.7996353              0.3585209
SP   3   1.00
     15.5396160             -0.1107775              0.0708743
      3.5999336             -0.1480263              0.3397528
      1.0137618              1.1307670              0.7271586
SP   1   1.00
      0.2700058              1.0000000              1.0000000
D    1   1.00
      2.5840000              1.0000000
D    1   1.00
      0.6460000              1.0000000
F    1   1.00
      1.4000000              1.0000000
****
F     0
S    6   1.00
   7001.7130900              0.0018196169
   1051.3660900              0.0139160796
    239.2856900              0.0684053245
     67.3974453              0.233185760
     21.5199573              0.471267439
      7.40310130             0.356618546
SP   3   1.00
     20.8479528             -0.108506975            0.0716287243
      4.80830834            -0.146451658            0.3459121030
      1.34406986             1.128688580            0.7224699570
SP   1   1.00
      0.358151393            1.0000000              1.0000000
D    1   1.00
      3.5000000              1.0000000
D    1   1.00
      0.8750000              1.0000000
F    1   1.00
      1.8500000              1.0000000
****
Al     0
S    6   1.00
  13983.1000000              0.00194267
   2098.7500000              0.0148599
    477.7050000              0.0728494
    134.3600000              0.2468300
     42.8709000              0.4872580
     14.5189000              0.3234960
SP   6   1.00
    239.6680000             -0.00292619             0.00460285
     57.4419000             -0.0374080              0.0331990
     18.2859000             -0.1144870              0.1362820
      6.5991400              0.1156350              0.3304760
      2.4904900              0.6125950              0.4491460
      0.9445400              0.3937990              0.2657040
SP   3   1.00
      1.2779000             -0.2276060             -0.0175130
      0.3975900              0.00144583             0.2445330
      0.1600950              1.0927900              0.8049340
SP   1   1.00
      0.0556577              1.0000000              1.0000000
D    1   1.00
      0.6500000              1.0000000
D    1   1.00
      0.1625000              1.0000000
F    1   1.00
      0.2500000              1.0000000
****
Si     0
S    6   1.00
  16115.9000000              0.00195948
   2425.5800000              0.01492880
    553.8670000              0.07284780
    156.3400000              0.24613000
     50.0683000              0.48591400
     17.0178000              0.32500200
SP   6   1.00
    292.7180000             -0.00278094             0.00443826
     69.8731000             -0.03571460             0.03266790
     22.3363000             -0.11498500             0.13472100
      8.1503900              0.09356340             0.32867800
      3.1345800              0.60301700             0.44964000
      1.2254300              0.41895900             0.26137200
SP   3   1.00
      1.7273800             -0.24463000            -0.01779510
      0.5729220              0.00431572             0.25353900
      0.2221920              1.09818000             0.80066900
SP   1   1.00
      0.0778369              1.00000000             1.00000000
D    1   1.00
      0.9000000              1.0000000
D    1   1.00
      0.2250000              1.0000000
F    1   1.00
      0.3200000              1.0000000
****
P     0
S    6   1.00
  19413.3000000              0.0018516
   2909.4200000              0.0142062
    661.3640000              0.0699995
    185.7590000              0.2400790
     59.1943000              0.4847620
     20.0310000              0.3352000
SP   6   1.00
    339.4780000             -0.00278217             0.00456462
     81.0101000             -0.0360499              0.03369360
     25.8780000             -0.1166310              0.13975500
      9.4522100              0.0968328              0.33936200
      3.6656600              0.6144180              0.45092100
      1.4674600              0.4037980              0.23858600
SP   3   1.00
      2.1562300             -0.2529230             -0.01776530
      0.7489970              0.0328517              0.27405800
      0.2831450              1.0812500              0.78542100
SP   1   1.00
      0.0998317              1.0000000              1.00000000
D    1   1.00
      1.1000000              1.0000000
D    1   1.00
      0.2750000              1.0000000
F    1   1.00
      0.4500000              1.0000000
****
S     0
S    6   1.00
  21917.1000000              0.0018690
   3301.4900000              0.0142300
    754.1460000              0.0696960
    212.7110000              0.2384870
     67.9896000              0.4833070
     23.0515000              0.3380740
SP   6   1.00
    423.7350000             -0.0023767              0.0040610
    100.7100000             -0.0316930              0.0306810
     32.1599000             -0.1133170              0.1304520
     11.8079000              0.0560900              0.3272050
      4.6311000              0.5922550              0.4528510
      1.8702500              0.4550060              0.2560420
SP   3   1.00
      2.6158400             -0.2503740             -0.0145110
      0.9221670              0.0669570              0.3102630
      0.3412870              1.0545100              0.7544830
SP   1   1.00
      0.1171670              1.0000000              1.0000000
D    1   1.00
      1.3000000              1.0000000
D    1   1.00
      0.3250000              1.0000000
F    1   1.00
      0.5500000              1.0000000
****
Cl     0
S    6   1.00
  25180.1000000              0.0018330
   3780.3500000              0.0140340
    860.4740000              0.0690970
    242.1450000              0.2374520
     77.3349000              0.4830340
     26.2470000              0.3398560
SP   6   1.00
    491.7650000             -0.0022974              0.0039894
    116.9840000             -0.0307140              0.0303180
     37.4153000             -0.1125280              0.1298800
     13.7834000              0.0450160              0.3279510
      5.4521500              0.5893530              0.4535270
      2.2258800              0.4652060              0.2521540
SP   3   1.00
      3.1864900             -0.2518300             -0.0142990
      1.1442700              0.0615890              0.3235720
      0.4203770              1.0601800              0.7435070
SP   1   1.00
      0.1426570              1.0000000              1.0000000
D    1   1.00
      1.5000000              1.0000000
D    1   1.00
      0.3750000              1.0000000
F    1   1.00
      0.7000000              1.0000000
****
}

set {
reference uhf
freeze_core true
e_convergence 10
d_convergence 10
dft_spherical_points 1202
dft_radial_points 99
}

e = energy('b3lyp')

print_out('Grab this energy {0}'.format(e))
--------------------------------------------------------------------------

    Molecular point group: c1

    Geometry (in Bohr), charge = 0, multiplicity = 2:

       Center              X                  Y                   Z               Mass
    ------------   -----------------  -----------------  -----------------  -----------------
         C           -0.005489065908    -1.352494230667     0.000960436545    12.000000000000
         C           -0.019396653008     1.464178414833    -0.000956384755    12.000000000000
         H            1.928008142592    -2.113432800067     0.002261587545     1.007825032230
         H           -0.944082848608    -2.124132732967     1.673924561245     1.007825032230
         H           -0.944200994808    -2.111592440967    -1.670196303655     1.007825032230
         H            0.128326206792     2.512410073333    -1.752517710655     1.007825032230
         H            0.128259485792     2.506943453333     1.746479621545     1.007825032230

  Charge       = 0
  Multiplicity = 2
  Basis Set: ANONYMOUS6F5FD795
    Blend: 6-31G_2DFP_
  Basis Set: (ANONYMOUS6F5FD795 AUX)
    Blend: DEF2-UNIVERSAL-JKFIT

    Orbital Energies [Eh]
    ---------------------

    Alpha Occupied:

       1A    -10.179463     2A    -10.174273     3A     -0.751751
       4A     -0.604917     5A     -0.446254     6A     -0.410408
       7A     -0.385714     8A     -0.353993     9A     -0.197305

    Alpha Virtual:

      10A      0.099017    11A      0.127922    12A      0.140769
      13A      0.165634    14A      0.203307    15A      0.247790
      16A      0.430501    17A      0.440791    18A      0.445982
      19A      0.449824    20A      0.478701    21A      0.520877
      22A      0.543584    23A      0.574197    24A      0.594306
      25A      0.618459    26A      0.633969    27A      0.639755
      28A      0.650061    29A      0.741208    30A      0.822693
      31A      0.865973    32A      0.931139    33A      0.976983
      34A      1.024633    35A      1.071309    36A      1.083524
      37A      1.086363    38A      1.180114    39A      1.220099
      40A      1.254131    41A      1.323376    42A      1.345394
      43A      1.368080    44A      1.419399    45A      1.445134
      46A      1.509945    47A      1.524472    48A      1.603603
      49A      1.763991    50A      1.806101    51A      1.952784
      52A      2.050366    53A      2.103476    54A      2.698355
      55A      2.801484    56A      2.828811    57A      2.860507
      58A      2.928582    59A      2.963271    60A      2.986149
      61A      3.079867    62A      3.093332    63A      3.158530
      64A      3.171209    65A      3.198891    66A      3.300444
      67A      3.358570    68A      3.390163    69A      3.493540
      70A      3.500263    71A      3.581679    72A      3.592778
      73A      3.713610    74A      3.806336    75A      3.973767
      76A      4.024438    77A      4.088680    78A      4.130032
      79A      4.189181    80A      4.199216    81A      4.206192
      82A      4.296215    83A      4.365478    84A      4.489481
      85A      4.501603    86A      4.527707    87A      4.864768
      88A      4.921800    89A      5.146246    90A      5.168860
      91A      5.278895    92A      5.329349

    Beta Occupied:

       1A    -10.175098     2A    -10.165527     3A     -0.735067
       4A     -0.580339     5A     -0.440096     6A     -0.395662
       7A     -0.377785     8A     -0.349546

    Beta Virtual:

       9A     -0.036160    10A      0.101663    11A      0.139047
      12A      0.142437    13A      0.170519    14A      0.206909
      15A      0.253512    16A      0.441852    17A      0.444883
      18A      0.455522    19A      0.459274    20A      0.487623
      21A      0.549091    22A      0.587598    23A      0.592095
      24A      0.602992    25A      0.623782    26A      0.641915
      27A      0.645494    28A      0.657501    29A      0.766535
      30A      0.822491    31A      0.869035    32A      0.948836
      33A      0.988147    34A      1.033253    35A      1.079258
      36A      1.089674    37A      1.102221    38A      1.183809
      39A      1.227778    40A      1.266483    41A      1.330003
      42A      1.352897    43A      1.374423    44A      1.425413
      45A      1.452615    46A      1.514529    47A      1.535734
      48A      1.614730    49A      1.770515    50A      1.812413
      51A      1.957216    52A      2.060339    53A      2.109023
      54A      2.721564    55A      2.823173    56A      2.830791
      57A      2.876558    58A      2.931135    59A      2.990165
      60A      3.022892    61A      3.093291    62A      3.120551
      63A      3.176472    64A      3.211289    65A      3.217715
      66A      3.339135    67A      3.370764    68A      3.408960
      69A      3.519988    70A      3.536502    71A      3.598460
      72A      3.603090    73A      3.731756    74A      3.806687
      75A      3.984706    76A      4.033230    77A      4.095157
      78A      4.139551    79A      4.203367    80A      4.204251
      81A      4.215590    82A      4.304179    83A      4.369768
      84A      4.496448    85A      4.512278    86A      4.535036
      87A      4.866131    88A      4.926132    89A      5.149657
      90A      5.179662    91A      5.286055    92A      5.331910

    Final Occupation by Irrep:
              A
    DOCC [     8 ]
    SOCC [     1 ]

  @DF-UKS Final Energy:   -79.16617698074943

   => Energetics <=

    Nuclear Repulsion Energy =             36.9402510918426330
    One-Electron Energy =                -178.0930511574442221
    Two-Electron Energy =                  72.2677860128504648
    DFT Exchange-Correlation Energy =     -10.2811629279983148
    Empirical Dispersion Energy =           0.0000000000000000
    VV10 Nonlocal Energy =                  0.0000000000000000
    Total Energy =                        -79.1661769807494267

  UHF NO Occupations:
  HONO-2 :    7  A 1.9997317
  HONO-1 :    8  A 1.9987118
  HONO-0 :    9  A 1.0000000
  LUNO+0 :   10  A 0.0012882
  LUNO+1 :   11  A 0.0002683
  LUNO+2 :   12  A 0.0002531
  LUNO+3 :   13  A 0.0002218

Computation Completed

Properties will be evaluated at   0.000000,   0.000000,   0.000000 [a0]

Properties computed using the SCF density matrix

  Nuclear Dipole Moment: [e a0]
     X:     0.1470      Y:    -0.6597      Z:    -0.0000

  Electronic Dipole Moment: [e a0]
     X:    -0.1044      Y:     0.5748      Z:    -0.0002

  Dipole Moment: [e a0]
     X:     0.0426      Y:    -0.0849      Z:    -0.0003     Total:     0.0950

  Dipole Moment: [D]
     X:     0.1082      Y:    -0.2159      Z:    -0.0007     Total:     0.2415

*** tstop() called on n044 at Fri Nov  5 17:59:50 2021
Module time:
	user time   =      61.84 seconds =       1.03 minutes
	system time =       0.46 seconds =       0.01 minutes
	total time  =         62 seconds =       1.03 minutes
Total time:
	user time   =      61.84 seconds =       1.03 minutes
	system time =       0.46 seconds =       0.01 minutes
	total time  =         62 seconds =       1.03 minutes
Grab this energy -79.16617698074943
    Psi4 stopped on: Friday, 05 November 2021 05:59PM
    Psi4 wall time for execution: 0:01:02.34

*** Psi4 exiting successfully. Buy a developer a beer!
