                               Psi4 1.4a2.dev629

  ==> Input File <==

--------------------------------------------------------------------------
import os
memory 14 GB

molecule {
 C   -0.0054513813   -1.3541961796   -0.0017042656
 C   -0.0192844968    1.4704704503   -0.0001310477
 H    1.9279616513   -2.1122443416   -0.0046280485
 H   -0.9482513131   -2.1170538948    1.6751101778
 H   -0.9401523052   -2.1163358708   -1.6690686559
 H    0.1284065380    2.5084448237   -1.7488996046
 H    0.1278238836    2.5092247450    1.7493214445
units bohr
0 2
}

basis {

assign 6-31g_2dfp_

[ 6-31g_2dfp_ ]

spherical

!----------------------------------------------------------------------
! Basis Set Exchange
! Version v0.8.13
! https://www.basissetexchange.org
!----------------------------------------------------------------------
!   Basis set: 6-31G(2df,p)
! Description: 6-31G(2df,p)
!        Role: orbital
!     Version: 0  (Data from the original Basis Set Exchange)
!----------------------------------------------------------------------

****
H     0
S    3   1.00
     18.7311370              0.03349460
      2.8253937              0.23472695
      0.6401217              0.81375733
S    1   1.00
      0.1612778              1.00000000
P    1   1.00
      1.5000000              1.0000000
P    1   1.00
      0.3750000              1.0000000
****
B     0
S    6   1.00
   2068.8823000              0.0018663
    310.6495700              0.0142515
     70.6830330              0.0695516
     19.8610800              0.2325729
      6.2993048              0.4670787
      2.1270270              0.3634314
SP   3   1.00
      4.7279710             -0.1303938              0.0745976
      1.1903377             -0.1307889              0.3078467
      0.3594117              1.1309444              0.7434568
SP   1   1.00
      0.1267512              1.0000000              1.0000000
D    1   1.00
      0.8020000              1.0000000
D    1   1.00
      0.2005000              1.0000000
F    1   1.00
      0.5000000              1.0000000
****
C     0
S    6   1.00
   3047.5249000              0.0018347
    457.3695100              0.0140373
    103.9486900              0.0688426
     29.2101550              0.2321844
      9.2866630              0.4679413
      3.1639270              0.3623120
SP   3   1.00
      7.8682724             -0.1193324              0.0689991
      1.8812885             -0.1608542              0.3164240
      0.5442493              1.1434564              0.7443083
SP   1   1.00
      0.1687144              1.0000000              1.0000000
D    1   1.00
      1.2520000              1.0000000
D    1   1.00
      0.3130000              1.0000000
F    1   1.00
      0.8000000              1.0000000
****
N     0
S    6   1.00
   4173.5110000              0.0018348
    627.4579000              0.0139950
    142.9021000              0.0685870
     40.2343300              0.2322410
     12.8202100              0.4690700
      4.3904370              0.3604550
SP   3   1.00
     11.6263580             -0.1149610              0.0675800
      2.7162800             -0.1691180              0.3239070
      0.7722180              1.1458520              0.7408950
SP   1   1.00
      0.2120313              1.0000000              1.0000000
D    1   1.00
      1.8260000              1.0000000
D    1   1.00
      0.4565000              1.0000000
F    1   1.00
      1.0000000              1.0000000
****
O     0
S    6   1.00
   5484.6717000              0.0018311
    825.2349500              0.0139501
    188.0469600              0.0684451
     52.9645000              0.2327143
     16.8975700              0.4701930
      5.7996353              0.3585209
SP   3   1.00
     15.5396160             -0.1107775              0.0708743
      3.5999336             -0.1480263              0.3397528
      1.0137618              1.1307670              0.7271586
SP   1   1.00
      0.2700058              1.0000000              1.0000000
D    1   1.00
      2.5840000              1.0000000
D    1   1.00
      0.6460000              1.0000000
F    1   1.00
      1.4000000              1.0000000
****
F     0
S    6   1.00
   7001.7130900              0.0018196169
   1051.3660900              0.0139160796
    239.2856900              0.0684053245
     67.3974453              0.233185760
     21.5199573              0.471267439
      7.40310130             0.356618546
SP   3   1.00
     20.8479528             -0.108506975            0.0716287243
      4.80830834            -0.146451658            0.3459121030
      1.34406986             1.128688580            0.7224699570
SP   1   1.00
      0.358151393            1.0000000              1.0000000
D    1   1.00
      3.5000000              1.0000000
D    1   1.00
      0.8750000              1.0000000
F    1   1.00
      1.8500000              1.0000000
****
Al     0
S    6   1.00
  13983.1000000              0.00194267
   2098.7500000              0.0148599
    477.7050000              0.0728494
    134.3600000              0.2468300
     42.8709000              0.4872580
     14.5189000              0.3234960
SP   6   1.00
    239.6680000             -0.00292619             0.00460285
     57.4419000             -0.0374080              0.0331990
     18.2859000             -0.1144870              0.1362820
      6.5991400              0.1156350              0.3304760
      2.4904900              0.6125950              0.4491460
      0.9445400              0.3937990              0.2657040
SP   3   1.00
      1.2779000             -0.2276060             -0.0175130
      0.3975900              0.00144583             0.2445330
      0.1600950              1.0927900              0.8049340
SP   1   1.00
      0.0556577              1.0000000              1.0000000
D    1   1.00
      0.6500000              1.0000000
D    1   1.00
      0.1625000              1.0000000
F    1   1.00
      0.2500000              1.0000000
****
Si     0
S    6   1.00
  16115.9000000              0.00195948
   2425.5800000              0.01492880
    553.8670000              0.07284780
    156.3400000              0.24613000
     50.0683000              0.48591400
     17.0178000              0.32500200
SP   6   1.00
    292.7180000             -0.00278094             0.00443826
     69.8731000             -0.03571460             0.03266790
     22.3363000             -0.11498500             0.13472100
      8.1503900              0.09356340             0.32867800
      3.1345800              0.60301700             0.44964000
      1.2254300              0.41895900             0.26137200
SP   3   1.00
      1.7273800             -0.24463000            -0.01779510
      0.5729220              0.00431572             0.25353900
      0.2221920              1.09818000             0.80066900
SP   1   1.00
      0.0778369              1.00000000             1.00000000
D    1   1.00
      0.9000000              1.0000000
D    1   1.00
      0.2250000              1.0000000
F    1   1.00
      0.3200000              1.0000000
****
P     0
S    6   1.00
  19413.3000000              0.0018516
   2909.4200000              0.0142062
    661.3640000              0.0699995
    185.7590000              0.2400790
     59.1943000              0.4847620
     20.0310000              0.3352000
SP   6   1.00
    339.4780000             -0.00278217             0.00456462
     81.0101000             -0.0360499              0.03369360
     25.8780000             -0.1166310              0.13975500
      9.4522100              0.0968328              0.33936200
      3.6656600              0.6144180              0.45092100
      1.4674600              0.4037980              0.23858600
SP   3   1.00
      2.1562300             -0.2529230             -0.01776530
      0.7489970              0.0328517              0.27405800
      0.2831450              1.0812500              0.78542100
SP   1   1.00
      0.0998317              1.0000000              1.00000000
D    1   1.00
      1.1000000              1.0000000
D    1   1.00
      0.2750000              1.0000000
F    1   1.00
      0.4500000              1.0000000
****
S     0
S    6   1.00
  21917.1000000              0.0018690
   3301.4900000              0.0142300
    754.1460000              0.0696960
    212.7110000              0.2384870
     67.9896000              0.4833070
     23.0515000              0.3380740
SP   6   1.00
    423.7350000             -0.0023767              0.0040610
    100.7100000             -0.0316930              0.0306810
     32.1599000             -0.1133170              0.1304520
     11.8079000              0.0560900              0.3272050
      4.6311000              0.5922550              0.4528510
      1.8702500              0.4550060              0.2560420
SP   3   1.00
      2.6158400             -0.2503740             -0.0145110
      0.9221670              0.0669570              0.3102630
      0.3412870              1.0545100              0.7544830
SP   1   1.00
      0.1171670              1.0000000              1.0000000
D    1   1.00
      1.3000000              1.0000000
D    1   1.00
      0.3250000              1.0000000
F    1   1.00
      0.5500000              1.0000000
****
Cl     0
S    6   1.00
  25180.1000000              0.0018330
   3780.3500000              0.0140340
    860.4740000              0.0690970
    242.1450000              0.2374520
     77.3349000              0.4830340
     26.2470000              0.3398560
SP   6   1.00
    491.7650000             -0.0022974              0.0039894
    116.9840000             -0.0307140              0.0303180
     37.4153000             -0.1125280              0.1298800
     13.7834000              0.0450160              0.3279510
      5.4521500              0.5893530              0.4535270
      2.2258800              0.4652060              0.2521540
SP   3   1.00
      3.1864900             -0.2518300             -0.0142990
      1.1442700              0.0615890              0.3235720
      0.4203770              1.0601800              0.7435070
SP   1   1.00
      0.1426570              1.0000000              1.0000000
D    1   1.00
      1.5000000              1.0000000
D    1   1.00
      0.3750000              1.0000000
F    1   1.00
      0.7000000              1.0000000
****
}

set {
reference uhf
freeze_core true
e_convergence 10
d_convergence 10
dft_spherical_points 1202
dft_radial_points 99
}

e = energy('b3lyp')

print_out('Grab this energy {0}'.format(e))
--------------------------------------------------------------------------

    Molecular point group: c1

    Geometry (in Bohr), charge = 0, multiplicity = 2:

       Center              X                  Y                   Z               Mass
    ------------   -----------------  -----------------  -----------------  -----------------
         C           -0.005495200512    -1.356156822156    -0.001009544778    12.000000000000
         C           -0.019328316012     1.468509807744     0.000563673122    12.000000000000
         H            1.927917832088    -2.114204984156    -0.003933327678     1.007825032230
         H           -0.948295132312    -2.119014537356     1.675804898622     1.007825032230
         H           -0.940196124412    -2.118296513356    -1.668373935078     1.007825032230
         H            0.128362718788     2.506484181144    -1.748204883778     1.007825032230
         H            0.127780064388     2.507264102444     1.750016165322     1.007825032230

  Charge       = 0
  Multiplicity = 2
  Basis Set: ANONYMOUS57823169
    Blend: 6-31G_2DFP_
  Basis Set: (ANONYMOUS57823169 AUX)
    Blend: DEF2-UNIVERSAL-JKFIT

    Orbital Energies [Eh]
    ---------------------

    Alpha Occupied:

       1A    -10.179375     2A    -10.174242     3A     -0.751107
       4A     -0.605373     5A     -0.446497     6A     -0.410206
       7A     -0.384679     8A     -0.354749     9A     -0.197540

    Alpha Virtual:

      10A      0.099072    11A      0.128219    12A      0.141413
      13A      0.165832    14A      0.203355    15A      0.246420
      16A      0.430085    17A      0.440407    18A      0.446908
      19A      0.450214    20A      0.478405    21A      0.520761
      22A      0.544085    23A      0.574114    24A      0.593410
      25A      0.619050    26A      0.634055    27A      0.639835
      28A      0.650844    29A      0.741383    30A      0.822515
      31A      0.866026    32A      0.930911    33A      0.976830
      34A      1.025576    35A      1.071063    36A      1.082913
      37A      1.086704    38A      1.180166    39A      1.221730
      40A      1.253515    41A      1.323274    42A      1.343501
      43A      1.367259    44A      1.419779    45A      1.445533
      46A      1.510845    47A      1.522209    48A      1.604658
      49A      1.765819    50A      1.806687    51A      1.952193
      52A      2.049717    53A      2.105211    54A      2.697817
      55A      2.799718    56A      2.828969    57A      2.860332
      58A      2.929080    59A      2.963761    60A      2.987106
      61A      3.080418    62A      3.092635    63A      3.160398
      64A      3.169862    65A      3.199029    66A      3.300217
      67A      3.358243    68A      3.389874    69A      3.494444
      70A      3.499257    71A      3.579585    72A      3.593905
      73A      3.711724    74A      3.806486    75A      3.972119
      76A      4.022275    77A      4.087088    78A      4.130769
      79A      4.190715    80A      4.198696    81A      4.205678
      82A      4.296456    83A      4.368223    84A      4.489087
      85A      4.498849    86A      4.525187    87A      4.868042
      88A      4.923480    89A      5.148096    90A      5.173640
      91A      5.278717    92A      5.329870

    Beta Occupied:

       1A    -10.175060     2A    -10.165432     3A     -0.734432
       4A     -0.580783     5A     -0.440305     6A     -0.395643
       7A     -0.376740     8A     -0.350337

    Beta Virtual:

       9A     -0.036166    10A      0.101694    11A      0.139392
      12A      0.143004    13A      0.170646    14A      0.206943
      15A      0.252190    16A      0.441449    17A      0.445217
      18A      0.455922    19A      0.459602    20A      0.487089
      21A      0.548861    22A      0.587601    23A      0.592626
      24A      0.602257    25A      0.624359    26A      0.642003
      27A      0.645632    28A      0.658267    29A      0.766712
      30A      0.822306    31A      0.869039    32A      0.948640
      33A      0.987947    34A      1.034113    35A      1.079092
      36A      1.090390    37A      1.101191    38A      1.183801
      39A      1.229469    40A      1.265809    41A      1.329859
      42A      1.350951    43A      1.373558    44A      1.425698
      45A      1.453023    46A      1.515462    47A      1.533254
      48A      1.616101    49A      1.772282    50A      1.812951
      51A      1.956605    52A      2.059651    53A      2.110686
      54A      2.721046    55A      2.821510    56A      2.830898
      57A      2.876459    58A      2.931583    59A      2.990326
      60A      3.024075    61A      3.093684    62A      3.119901
      63A      3.178191    64A      3.210020    65A      3.217789
      66A      3.339280    67A      3.370884    68A      3.408603
      69A      3.519304    70A      3.537267    71A      3.595967
      72A      3.604184    73A      3.729851    74A      3.806792
      75A      3.982982    76A      4.031448    77A      4.093458
      78A      4.140246    79A      4.203146    80A      4.205593
      81A      4.214796    82A      4.304452    83A      4.372431
      84A      4.496045    85A      4.509227    86A      4.532589
      87A      4.869394    88A      4.927757    89A      5.151395
      90A      5.184528    91A      5.285769    92A      5.332434

    Final Occupation by Irrep:
              A
    DOCC [     8 ]
    SOCC [     1 ]

  @DF-UKS Final Energy:   -79.16612281167519

   => Energetics <=

    Nuclear Repulsion Energy =             36.9151362480771255
    One-Electron Energy =                -178.0431236292974120
    Two-Electron Energy =                  72.2433997335551084
    DFT Exchange-Correlation Energy =     -10.2815351640100090
    Empirical Dispersion Energy =           0.0000000000000000
    VV10 Nonlocal Energy =                  0.0000000000000000
    Total Energy =                        -79.1661228116751943

  UHF NO Occupations:
  HONO-2 :    7  A 1.9997340
  HONO-1 :    8  A 1.9987101
  HONO-0 :    9  A 1.0000000
  LUNO+0 :   10  A 0.0012899
  LUNO+1 :   11  A 0.0002660
  LUNO+2 :   12  A 0.0002485
  LUNO+3 :   13  A 0.0002227

Computation Completed

Properties will be evaluated at   0.000000,   0.000000,   0.000000 [a0]

Properties computed using the SCF density matrix

  Nuclear Dipole Moment: [e a0]
     X:     0.1466      Y:    -0.6636      Z:     0.0026

  Electronic Dipole Moment: [e a0]
     X:    -0.1039      Y:     0.5796      Z:    -0.0042

  Dipole Moment: [e a0]
     X:     0.0427      Y:    -0.0841      Z:    -0.0015     Total:     0.0943

  Dipole Moment: [D]
     X:     0.1086      Y:    -0.2137      Z:    -0.0039     Total:     0.2397

*** tstop() called on n045 at Fri Nov  5 18:49:24 2021
Module time:
	user time   =      61.29 seconds =       1.02 minutes
	system time =       0.45 seconds =       0.01 minutes
	total time  =         62 seconds =       1.03 minutes
Total time:
	user time   =      61.29 seconds =       1.02 minutes
	system time =       0.45 seconds =       0.01 minutes
	total time  =         62 seconds =       1.03 minutes
Grab this energy -79.1661228116752
    Psi4 stopped on: Friday, 05 November 2021 06:49PM
    Psi4 wall time for execution: 0:01:01.77

*** Psi4 exiting successfully. Buy a developer a beer!
