                               Psi4 1.4a2.dev629

  ==> Input File <==

--------------------------------------------------------------------------
import os
memory 14 GB

molecule {
 C   -0.0045198134   -1.3541903018    0.0000000000
 C   -0.0200672333    1.4642531699   -0.0000000000
 H    1.9285042428   -2.1191492652    0.0000000000
 H   -0.9423582199   -2.1116423436    1.6722392169
 H   -0.9423582199   -2.1116423436   -1.6722392169
 H    0.1259259100    2.5103404082   -1.7416906053
 H    0.1259259100    2.5103404082    1.7416906053
units bohr
0 2
}

basis {

assign 6-31g_2dfp_

[ 6-31g_2dfp_ ]

spherical

!----------------------------------------------------------------------
! Basis Set Exchange
! Version v0.8.13
! https://www.basissetexchange.org
!----------------------------------------------------------------------
!   Basis set: 6-31G(2df,p)
! Description: 6-31G(2df,p)
!        Role: orbital
!     Version: 0  (Data from the original Basis Set Exchange)
!----------------------------------------------------------------------

****
H     0
S    3   1.00
     18.7311370              0.03349460
      2.8253937              0.23472695
      0.6401217              0.81375733
S    1   1.00
      0.1612778              1.00000000
P    1   1.00
      1.5000000              1.0000000
P    1   1.00
      0.3750000              1.0000000
****
B     0
S    6   1.00
   2068.8823000              0.0018663
    310.6495700              0.0142515
     70.6830330              0.0695516
     19.8610800              0.2325729
      6.2993048              0.4670787
      2.1270270              0.3634314
SP   3   1.00
      4.7279710             -0.1303938              0.0745976
      1.1903377             -0.1307889              0.3078467
      0.3594117              1.1309444              0.7434568
SP   1   1.00
      0.1267512              1.0000000              1.0000000
D    1   1.00
      0.8020000              1.0000000
D    1   1.00
      0.2005000              1.0000000
F    1   1.00
      0.5000000              1.0000000
****
C     0
S    6   1.00
   3047.5249000              0.0018347
    457.3695100              0.0140373
    103.9486900              0.0688426
     29.2101550              0.2321844
      9.2866630              0.4679413
      3.1639270              0.3623120
SP   3   1.00
      7.8682724             -0.1193324              0.0689991
      1.8812885             -0.1608542              0.3164240
      0.5442493              1.1434564              0.7443083
SP   1   1.00
      0.1687144              1.0000000              1.0000000
D    1   1.00
      1.2520000              1.0000000
D    1   1.00
      0.3130000              1.0000000
F    1   1.00
      0.8000000              1.0000000
****
N     0
S    6   1.00
   4173.5110000              0.0018348
    627.4579000              0.0139950
    142.9021000              0.0685870
     40.2343300              0.2322410
     12.8202100              0.4690700
      4.3904370              0.3604550
SP   3   1.00
     11.6263580             -0.1149610              0.0675800
      2.7162800             -0.1691180              0.3239070
      0.7722180              1.1458520              0.7408950
SP   1   1.00
      0.2120313              1.0000000              1.0000000
D    1   1.00
      1.8260000              1.0000000
D    1   1.00
      0.4565000              1.0000000
F    1   1.00
      1.0000000              1.0000000
****
O     0
S    6   1.00
   5484.6717000              0.0018311
    825.2349500              0.0139501
    188.0469600              0.0684451
     52.9645000              0.2327143
     16.8975700              0.4701930
      5.7996353              0.3585209
SP   3   1.00
     15.5396160             -0.1107775              0.0708743
      3.5999336             -0.1480263              0.3397528
      1.0137618              1.1307670              0.7271586
SP   1   1.00
      0.2700058              1.0000000              1.0000000
D    1   1.00
      2.5840000              1.0000000
D    1   1.00
      0.6460000              1.0000000
F    1   1.00
      1.4000000              1.0000000
****
F     0
S    6   1.00
   7001.7130900              0.0018196169
   1051.3660900              0.0139160796
    239.2856900              0.0684053245
     67.3974453              0.233185760
     21.5199573              0.471267439
      7.40310130             0.356618546
SP   3   1.00
     20.8479528             -0.108506975            0.0716287243
      4.80830834            -0.146451658            0.3459121030
      1.34406986             1.128688580            0.7224699570
SP   1   1.00
      0.358151393            1.0000000              1.0000000
D    1   1.00
      3.5000000              1.0000000
D    1   1.00
      0.8750000              1.0000000
F    1   1.00
      1.8500000              1.0000000
****
Al     0
S    6   1.00
  13983.1000000              0.00194267
   2098.7500000              0.0148599
    477.7050000              0.0728494
    134.3600000              0.2468300
     42.8709000              0.4872580
     14.5189000              0.3234960
SP   6   1.00
    239.6680000             -0.00292619             0.00460285
     57.4419000             -0.0374080              0.0331990
     18.2859000             -0.1144870              0.1362820
      6.5991400              0.1156350              0.3304760
      2.4904900              0.6125950              0.4491460
      0.9445400              0.3937990              0.2657040
SP   3   1.00
      1.2779000             -0.2276060             -0.0175130
      0.3975900              0.00144583             0.2445330
      0.1600950              1.0927900              0.8049340
SP   1   1.00
      0.0556577              1.0000000              1.0000000
D    1   1.00
      0.6500000              1.0000000
D    1   1.00
      0.1625000              1.0000000
F    1   1.00
      0.2500000              1.0000000
****
Si     0
S    6   1.00
  16115.9000000              0.00195948
   2425.5800000              0.01492880
    553.8670000              0.07284780
    156.3400000              0.24613000
     50.0683000              0.48591400
     17.0178000              0.32500200
SP   6   1.00
    292.7180000             -0.00278094             0.00443826
     69.8731000             -0.03571460             0.03266790
     22.3363000             -0.11498500             0.13472100
      8.1503900              0.09356340             0.32867800
      3.1345800              0.60301700             0.44964000
      1.2254300              0.41895900             0.26137200
SP   3   1.00
      1.7273800             -0.24463000            -0.01779510
      0.5729220              0.00431572             0.25353900
      0.2221920              1.09818000             0.80066900
SP   1   1.00
      0.0778369              1.00000000             1.00000000
D    1   1.00
      0.9000000              1.0000000
D    1   1.00
      0.2250000              1.0000000
F    1   1.00
      0.3200000              1.0000000
****
P     0
S    6   1.00
  19413.3000000              0.0018516
   2909.4200000              0.0142062
    661.3640000              0.0699995
    185.7590000              0.2400790
     59.1943000              0.4847620
     20.0310000              0.3352000
SP   6   1.00
    339.4780000             -0.00278217             0.00456462
     81.0101000             -0.0360499              0.03369360
     25.8780000             -0.1166310              0.13975500
      9.4522100              0.0968328              0.33936200
      3.6656600              0.6144180              0.45092100
      1.4674600              0.4037980              0.23858600
SP   3   1.00
      2.1562300             -0.2529230             -0.01776530
      0.7489970              0.0328517              0.27405800
      0.2831450              1.0812500              0.78542100
SP   1   1.00
      0.0998317              1.0000000              1.00000000
D    1   1.00
      1.1000000              1.0000000
D    1   1.00
      0.2750000              1.0000000
F    1   1.00
      0.4500000              1.0000000
****
S     0
S    6   1.00
  21917.1000000              0.0018690
   3301.4900000              0.0142300
    754.1460000              0.0696960
    212.7110000              0.2384870
     67.9896000              0.4833070
     23.0515000              0.3380740
SP   6   1.00
    423.7350000             -0.0023767              0.0040610
    100.7100000             -0.0316930              0.0306810
     32.1599000             -0.1133170              0.1304520
     11.8079000              0.0560900              0.3272050
      4.6311000              0.5922550              0.4528510
      1.8702500              0.4550060              0.2560420
SP   3   1.00
      2.6158400             -0.2503740             -0.0145110
      0.9221670              0.0669570              0.3102630
      0.3412870              1.0545100              0.7544830
SP   1   1.00
      0.1171670              1.0000000              1.0000000
D    1   1.00
      1.3000000              1.0000000
D    1   1.00
      0.3250000              1.0000000
F    1   1.00
      0.5500000              1.0000000
****
Cl     0
S    6   1.00
  25180.1000000              0.0018330
   3780.3500000              0.0140340
    860.4740000              0.0690970
    242.1450000              0.2374520
     77.3349000              0.4830340
     26.2470000              0.3398560
SP   6   1.00
    491.7650000             -0.0022974              0.0039894
    116.9840000             -0.0307140              0.0303180
     37.4153000             -0.1125280              0.1298800
     13.7834000              0.0450160              0.3279510
      5.4521500              0.5893530              0.4535270
      2.2258800              0.4652060              0.2521540
SP   3   1.00
      3.1864900             -0.2518300             -0.0142990
      1.1442700              0.0615890              0.3235720
      0.4203770              1.0601800              0.7435070
SP   1   1.00
      0.1426570              1.0000000              1.0000000
D    1   1.00
      1.5000000              1.0000000
D    1   1.00
      0.3750000              1.0000000
F    1   1.00
      0.7000000              1.0000000
****
}

set {
reference uhf
freeze_core true
e_convergence 10
d_convergence 10
dft_spherical_points 1202
dft_radial_points 99
}

e = energy('b3lyp')

print_out('Grab this energy {0}'.format(e))
--------------------------------------------------------------------------

    Molecular point group: cs

    Geometry (in Bohr), charge = 0, multiplicity = 2:

       Center              X                  Y                   Z               Mass
    ------------   -----------------  -----------------  -----------------  -----------------
         C           -0.004619969729    -1.353799743213     0.000000000000    12.000000000000
         C           -0.020167389629     1.464643728487     0.000000000000    12.000000000000
         H            1.928404086471    -2.118758706613     0.000000000000     1.007825032230
         H           -0.942458376229    -2.111251785013     1.672239216900     1.007825032230
         H           -0.942458376229    -2.111251785013    -1.672239216900     1.007825032230
         H            0.125825753671     2.510730966787    -1.741690605300     1.007825032230
         H            0.125825753671     2.510730966787     1.741690605300     1.007825032230

  Charge       = 0
  Multiplicity = 2
  Basis Set: ANONYMOUSAC33E7DF
    Blend: 6-31G_2DFP_
  Basis Set: (ANONYMOUSAC33E7DF AUX)
    Blend: DEF2-UNIVERSAL-JKFIT

    Orbital Energies [Eh]
    ---------------------

    Alpha Occupied:

       1Ap   -10.178773     2Ap   -10.174061     3Ap    -0.751833
       4Ap    -0.605602     1App   -0.446722     5Ap    -0.410321
       6Ap    -0.385643     2App   -0.354591     7Ap    -0.197326

    Alpha Virtual:

       8Ap     0.099341     9Ap     0.128478     3App    0.141574
      10Ap     0.165813     4App    0.203791    11Ap     0.247692
      12Ap     0.430469     5App    0.440737    13Ap     0.446361
       6App    0.449585    14Ap     0.479156    15Ap     0.520983
      16Ap     0.543718     7App    0.574791    17Ap     0.595057
       8App    0.619483    18Ap     0.634214    19Ap     0.640176
       9App    0.651486    20Ap     0.741471    10App    0.824062
      11App    0.865981    21Ap     0.930557    22Ap     0.979411
      12App    1.024329    13App    1.072945    23Ap     1.083577
      24Ap     1.087435    25Ap     1.179263    14App    1.220651
      26Ap     1.255631    15App    1.324596    27Ap     1.344678
      28Ap     1.367528    29Ap     1.420053    16App    1.447100
      17App    1.512003    30Ap     1.525187    31Ap     1.607287
      32Ap     1.765697    33Ap     1.808608    18App    1.953173
      19App    2.055864    34Ap     2.103670    35Ap     2.697700
      36Ap     2.802065    20App    2.830458    21App    2.861141
      22App    2.928915    37Ap     2.964106    38Ap     2.986890
      23App    3.079502    39Ap     3.091763    24App    3.157535
      40Ap     3.171758    25App    3.199554    26App    3.299040
      41Ap     3.361399    42Ap     3.388260    43Ap     3.494151
      27App    3.499774    28App    3.582950    44Ap     3.595585
      45Ap     3.713663    29App    3.808041    46Ap     3.973747
      47Ap     4.025144    48Ap     4.092861    49Ap     4.130789
      30App    4.194283    31App    4.199932    50Ap     4.205753
      51Ap     4.296572    32App    4.370102    33App    4.494029
      52Ap     4.500362    53Ap     4.531756    34App    4.872431
      54Ap     4.925240    35App    5.159120    55Ap     5.172009
      56Ap     5.280113    36App    5.332732

    Beta Occupied:

       1Ap   -10.174886     2Ap   -10.164847     3Ap    -0.735136
       4Ap    -0.581071     1App   -0.440563     5Ap    -0.395587
       6Ap    -0.377734     2App   -0.350102

    Beta Virtual:

       7Ap    -0.036176     8Ap     0.101905     9Ap     0.139629
       3App    0.143172    10Ap     0.170707     4App    0.207371
      11Ap     0.253412     5App    0.441820    12Ap     0.445169
       6App    0.455256    13Ap     0.459298    14Ap     0.488268
      15Ap     0.549021     7App    0.588372    16Ap     0.592346
      17Ap     0.603679     8App    0.624817    18Ap     0.642141
      19Ap     0.646076     9App    0.658923    20Ap     0.766746
      10App    0.823892    11App    0.869036    21Ap     0.948290
      22Ap     0.990661    12App    1.032812    13App    1.080941
      23Ap     1.088131    24Ap     1.104894    25Ap     1.182839
      14App    1.228407    26Ap     1.268036    15App    1.331201
      27Ap     1.352164    28Ap     1.373813    29Ap     1.425991
      16App    1.454525    17App    1.516630    30Ap     1.536616
      31Ap     1.618323    32Ap     1.772314    33Ap     1.814831
      18App    1.957611    19App    2.065899    34Ap     2.109196
      35Ap     2.720896    36Ap     2.823770    20App    2.832487
      21App    2.877104    22App    2.931421    37Ap     2.990494
      38Ap     3.023977    23App    3.092957    39Ap     3.119373
      24App    3.175128    40Ap     3.211785    25App    3.217610
      26App    3.338455    41Ap     3.372944    42Ap     3.407973
      27App    3.519936    43Ap     3.537000    28App    3.599441
      44Ap     3.605673    45Ap     3.731697    29App    3.808336
      46Ap     3.984610    47Ap     4.034643    48Ap     4.098725
      49Ap     4.140291    30App    4.203917    31App    4.209581
      50Ap     4.215167    51Ap     4.304569    32App    4.374368
      33App    4.501156    52Ap     4.511088    53Ap     4.539016
      34App    4.873807    54Ap     4.929594    35App    5.162475
      55Ap     5.182944    56Ap     5.287224    36App    5.335287

    Final Occupation by Irrep:
             Ap   App
    DOCC [     6,    2 ]
    SOCC [     1,    0 ]

  @DF-UKS Final Energy:   -79.16613476983036

   => Energetics <=

    Nuclear Repulsion Energy =             36.9636791526044490
    One-Electron Energy =                -178.1364407755896480
    Two-Electron Energy =                  72.2903297911357754
    DFT Exchange-Correlation Energy =     -10.2837029379809408
    Empirical Dispersion Energy =           0.0000000000000000
    VV10 Nonlocal Energy =                  0.0000000000000000
    Total Energy =                        -79.1661347698303643

  UHF NO Occupations:
  HONO-2 :    2App 1.9997345
  HONO-1 :    6 Ap 1.9987184
  HONO-0 :    7 Ap 1.0000000
  LUNO+0 :    8 Ap 0.0012816
  LUNO+1 :    3App 0.0002655
  LUNO+2 :    9 Ap 0.0002521
  LUNO+3 :   10 Ap 0.0002214

Computation Completed

Properties will be evaluated at   0.000000,   0.000000,   0.000000 [a0]

Properties computed using the SCF density matrix

  Nuclear Dipole Moment: [e a0]
     X:     0.1464      Y:    -0.6547      Z:     0.0000

  Electronic Dipole Moment: [e a0]
     X:    -0.1046      Y:     0.5706      Z:     0.0000

  Dipole Moment: [e a0]
     X:     0.0418      Y:    -0.0841      Z:     0.0000     Total:     0.0940

  Dipole Moment: [D]
     X:     0.1064      Y:    -0.2138      Z:     0.0000     Total:     0.2388

*** tstop() called on n041 at Fri Nov  5 19:21:39 2021
Module time:
	user time   =      65.10 seconds =       1.09 minutes
	system time =       0.44 seconds =       0.01 minutes
	total time  =         65 seconds =       1.08 minutes
Total time:
	user time   =      65.10 seconds =       1.09 minutes
	system time =       0.44 seconds =       0.01 minutes
	total time  =         65 seconds =       1.08 minutes
Grab this energy -79.16613476983036
    Psi4 stopped on: Friday, 05 November 2021 07:21PM
    Psi4 wall time for execution: 0:01:05.58

*** Psi4 exiting successfully. Buy a developer a beer!
