                               Psi4 1.4a2.dev629

  ==> Input File <==

--------------------------------------------------------------------------
import os
memory 14 GB

molecule {
 C   -0.0054794581   -1.3544041568   -0.0003695908
 C   -0.0193794033    1.4655018155   -0.0041667333
 H    1.9281491949   -2.1116748532    0.0037058820
 H   -0.9476825386   -2.1109486596    1.6726832024
 H   -0.9409746955   -2.1212552278   -1.6717670555
 H    0.1231885162    2.5199253338   -1.7495063760
 H    0.1332309608    2.5011654803    1.7494206713
units bohr
0 2
}

basis {

assign 6-31g_2dfp_

[ 6-31g_2dfp_ ]

spherical

!----------------------------------------------------------------------
! Basis Set Exchange
! Version v0.8.13
! https://www.basissetexchange.org
!----------------------------------------------------------------------
!   Basis set: 6-31G(2df,p)
! Description: 6-31G(2df,p)
!        Role: orbital
!     Version: 0  (Data from the original Basis Set Exchange)
!----------------------------------------------------------------------

****
H     0
S    3   1.00
     18.7311370              0.03349460
      2.8253937              0.23472695
      0.6401217              0.81375733
S    1   1.00
      0.1612778              1.00000000
P    1   1.00
      1.5000000              1.0000000
P    1   1.00
      0.3750000              1.0000000
****
B     0
S    6   1.00
   2068.8823000              0.0018663
    310.6495700              0.0142515
     70.6830330              0.0695516
     19.8610800              0.2325729
      6.2993048              0.4670787
      2.1270270              0.3634314
SP   3   1.00
      4.7279710             -0.1303938              0.0745976
      1.1903377             -0.1307889              0.3078467
      0.3594117              1.1309444              0.7434568
SP   1   1.00
      0.1267512              1.0000000              1.0000000
D    1   1.00
      0.8020000              1.0000000
D    1   1.00
      0.2005000              1.0000000
F    1   1.00
      0.5000000              1.0000000
****
C     0
S    6   1.00
   3047.5249000              0.0018347
    457.3695100              0.0140373
    103.9486900              0.0688426
     29.2101550              0.2321844
      9.2866630              0.4679413
      3.1639270              0.3623120
SP   3   1.00
      7.8682724             -0.1193324              0.0689991
      1.8812885             -0.1608542              0.3164240
      0.5442493              1.1434564              0.7443083
SP   1   1.00
      0.1687144              1.0000000              1.0000000
D    1   1.00
      1.2520000              1.0000000
D    1   1.00
      0.3130000              1.0000000
F    1   1.00
      0.8000000              1.0000000
****
N     0
S    6   1.00
   4173.5110000              0.0018348
    627.4579000              0.0139950
    142.9021000              0.0685870
     40.2343300              0.2322410
     12.8202100              0.4690700
      4.3904370              0.3604550
SP   3   1.00
     11.6263580             -0.1149610              0.0675800
      2.7162800             -0.1691180              0.3239070
      0.7722180              1.1458520              0.7408950
SP   1   1.00
      0.2120313              1.0000000              1.0000000
D    1   1.00
      1.8260000              1.0000000
D    1   1.00
      0.4565000              1.0000000
F    1   1.00
      1.0000000              1.0000000
****
O     0
S    6   1.00
   5484.6717000              0.0018311
    825.2349500              0.0139501
    188.0469600              0.0684451
     52.9645000              0.2327143
     16.8975700              0.4701930
      5.7996353              0.3585209
SP   3   1.00
     15.5396160             -0.1107775              0.0708743
      3.5999336             -0.1480263              0.3397528
      1.0137618              1.1307670              0.7271586
SP   1   1.00
      0.2700058              1.0000000              1.0000000
D    1   1.00
      2.5840000              1.0000000
D    1   1.00
      0.6460000              1.0000000
F    1   1.00
      1.4000000              1.0000000
****
F     0
S    6   1.00
   7001.7130900              0.0018196169
   1051.3660900              0.0139160796
    239.2856900              0.0684053245
     67.3974453              0.233185760
     21.5199573              0.471267439
      7.40310130             0.356618546
SP   3   1.00
     20.8479528             -0.108506975            0.0716287243
      4.80830834            -0.146451658            0.3459121030
      1.34406986             1.128688580            0.7224699570
SP   1   1.00
      0.358151393            1.0000000              1.0000000
D    1   1.00
      3.5000000              1.0000000
D    1   1.00
      0.8750000              1.0000000
F    1   1.00
      1.8500000              1.0000000
****
Al     0
S    6   1.00
  13983.1000000              0.00194267
   2098.7500000              0.0148599
    477.7050000              0.0728494
    134.3600000              0.2468300
     42.8709000              0.4872580
     14.5189000              0.3234960
SP   6   1.00
    239.6680000             -0.00292619             0.00460285
     57.4419000             -0.0374080              0.0331990
     18.2859000             -0.1144870              0.1362820
      6.5991400              0.1156350              0.3304760
      2.4904900              0.6125950              0.4491460
      0.9445400              0.3937990              0.2657040
SP   3   1.00
      1.2779000             -0.2276060             -0.0175130
      0.3975900              0.00144583             0.2445330
      0.1600950              1.0927900              0.8049340
SP   1   1.00
      0.0556577              1.0000000              1.0000000
D    1   1.00
      0.6500000              1.0000000
D    1   1.00
      0.1625000              1.0000000
F    1   1.00
      0.2500000              1.0000000
****
Si     0
S    6   1.00
  16115.9000000              0.00195948
   2425.5800000              0.01492880
    553.8670000              0.07284780
    156.3400000              0.24613000
     50.0683000              0.48591400
     17.0178000              0.32500200
SP   6   1.00
    292.7180000             -0.00278094             0.00443826
     69.8731000             -0.03571460             0.03266790
     22.3363000             -0.11498500             0.13472100
      8.1503900              0.09356340             0.32867800
      3.1345800              0.60301700             0.44964000
      1.2254300              0.41895900             0.26137200
SP   3   1.00
      1.7273800             -0.24463000            -0.01779510
      0.5729220              0.00431572             0.25353900
      0.2221920              1.09818000             0.80066900
SP   1   1.00
      0.0778369              1.00000000             1.00000000
D    1   1.00
      0.9000000              1.0000000
D    1   1.00
      0.2250000              1.0000000
F    1   1.00
      0.3200000              1.0000000
****
P     0
S    6   1.00
  19413.3000000              0.0018516
   2909.4200000              0.0142062
    661.3640000              0.0699995
    185.7590000              0.2400790
     59.1943000              0.4847620
     20.0310000              0.3352000
SP   6   1.00
    339.4780000             -0.00278217             0.00456462
     81.0101000             -0.0360499              0.03369360
     25.8780000             -0.1166310              0.13975500
      9.4522100              0.0968328              0.33936200
      3.6656600              0.6144180              0.45092100
      1.4674600              0.4037980              0.23858600
SP   3   1.00
      2.1562300             -0.2529230             -0.01776530
      0.7489970              0.0328517              0.27405800
      0.2831450              1.0812500              0.78542100
SP   1   1.00
      0.0998317              1.0000000              1.00000000
D    1   1.00
      1.1000000              1.0000000
D    1   1.00
      0.2750000              1.0000000
F    1   1.00
      0.4500000              1.0000000
****
S     0
S    6   1.00
  21917.1000000              0.0018690
   3301.4900000              0.0142300
    754.1460000              0.0696960
    212.7110000              0.2384870
     67.9896000              0.4833070
     23.0515000              0.3380740
SP   6   1.00
    423.7350000             -0.0023767              0.0040610
    100.7100000             -0.0316930              0.0306810
     32.1599000             -0.1133170              0.1304520
     11.8079000              0.0560900              0.3272050
      4.6311000              0.5922550              0.4528510
      1.8702500              0.4550060              0.2560420
SP   3   1.00
      2.6158400             -0.2503740             -0.0145110
      0.9221670              0.0669570              0.3102630
      0.3412870              1.0545100              0.7544830
SP   1   1.00
      0.1171670              1.0000000              1.0000000
D    1   1.00
      1.3000000              1.0000000
D    1   1.00
      0.3250000              1.0000000
F    1   1.00
      0.5500000              1.0000000
****
Cl     0
S    6   1.00
  25180.1000000              0.0018330
   3780.3500000              0.0140340
    860.4740000              0.0690970
    242.1450000              0.2374520
     77.3349000              0.4830340
     26.2470000              0.3398560
SP   6   1.00
    491.7650000             -0.0022974              0.0039894
    116.9840000             -0.0307140              0.0303180
     37.4153000             -0.1125280              0.1298800
     13.7834000              0.0450160              0.3279510
      5.4521500              0.5893530              0.4535270
      2.2258800              0.4652060              0.2521540
SP   3   1.00
      3.1864900             -0.2518300             -0.0142990
      1.1442700              0.0615890              0.3235720
      0.4203770              1.0601800              0.7435070
SP   1   1.00
      0.1426570              1.0000000              1.0000000
D    1   1.00
      1.5000000              1.0000000
D    1   1.00
      0.3750000              1.0000000
F    1   1.00
      0.7000000              1.0000000
****
}

set {
reference uhf
freeze_core true
e_convergence 10
d_convergence 10
dft_spherical_points 1202
dft_radial_points 99
}

e = energy('b3lyp')

print_out('Grab this energy {0}'.format(e))
--------------------------------------------------------------------------

    Molecular point group: c1

    Geometry (in Bohr), charge = 0, multiplicity = 2:

       Center              X                  Y                   Z               Mass
    ------------   -----------------  -----------------  -----------------  -----------------
         C           -0.005476724462    -1.354405297321     0.001347543165    12.000000000000
         C           -0.019376669662     1.465500674979    -0.002449599335    12.000000000000
         H            1.928151928538    -2.111675993721     0.005423015965     1.007825032230
         H           -0.947679804962    -2.110949800121     1.674400336365     1.007825032230
         H           -0.940971961862    -2.121256368321    -1.670049921535     1.007825032230
         H            0.123191249838     2.519924193279    -1.747789242035     1.007825032230
         H            0.133233694438     2.501164339779     1.751137805265     1.007825032230

  Charge       = 0
  Multiplicity = 2
  Basis Set: ANONYMOUS8AB82EF6
    Blend: 6-31G_2DFP_
  Basis Set: (ANONYMOUS8AB82EF6 AUX)
    Blend: DEF2-UNIVERSAL-JKFIT

    Orbital Energies [Eh]
    ---------------------

    Alpha Occupied:

       1A    -10.179495     2A    -10.174204     3A     -0.751521
       4A     -0.604984     5A     -0.446251     6A     -0.410540
       7A     -0.385232     8A     -0.354257     9A     -0.197350

    Alpha Virtual:

      10A      0.099042    11A      0.127973    12A      0.141012
      13A      0.165738    14A      0.203277    15A      0.247203
      16A      0.430327    17A      0.440642    18A      0.446273
      19A      0.449990    20A      0.478613    21A      0.520928
      22A      0.543831    23A      0.574257    24A      0.594068
      25A      0.618755    26A      0.634000    27A      0.639765
      28A      0.650149    29A      0.741257    30A      0.822597
      31A      0.865879    32A      0.931149    33A      0.977106
      34A      1.024922    35A      1.071062    36A      1.083937
      37A      1.085834    38A      1.179923    39A      1.220491
      40A      1.253720    41A      1.323471    42A      1.344832
      43A      1.367495    44A      1.420151    45A      1.445822
      46A      1.509908    47A      1.524183    48A      1.603355
      49A      1.764479    50A      1.806676    51A      1.952075
      52A      2.049965    53A      2.103086    54A      2.698319
      55A      2.801150    56A      2.828905    57A      2.860491
      58A      2.928773    59A      2.963063    60A      2.986525
      61A      3.080024    62A      3.093461    63A      3.158748
      64A      3.170723    65A      3.199084    66A      3.300371
      67A      3.358159    68A      3.390156    69A      3.493917
      70A      3.499573    71A      3.581037    72A      3.594543
      73A      3.712333    74A      3.806608    75A      3.973724
      76A      4.023713    77A      4.088091    78A      4.129424
      79A      4.189292    80A      4.198296    81A      4.205145
      82A      4.294612    83A      4.368888    84A      4.489773
      85A      4.501237    86A      4.527242    87A      4.864890
      88A      4.924480    89A      5.146550    90A      5.168823
      91A      5.279005    92A      5.329169

    Beta Occupied:

       1A    -10.175024     2A    -10.165553     3A     -0.734870
       4A     -0.580363     5A     -0.440105     6A     -0.395884
       7A     -0.377299     8A     -0.349803

    Beta Virtual:

       9A     -0.036075    10A      0.101692    11A      0.139133
      12A      0.142641    13A      0.170572    14A      0.206876
      15A      0.252949    16A      0.441690    17A      0.445024
      18A      0.455653    19A      0.459294    20A      0.487433
      21A      0.549099    22A      0.587722    23A      0.592388
      24A      0.602813    25A      0.624048    26A      0.641910
      27A      0.645500    28A      0.657590    29A      0.766624
      30A      0.822386    31A      0.868912    32A      0.948818
      33A      0.988289    34A      1.033536    35A      1.079097
      36A      1.089227    37A      1.102515    38A      1.183552
      39A      1.228228    40A      1.266075    41A      1.330030
      42A      1.352322    43A      1.373819    44A      1.426114
      45A      1.453297    46A      1.514505    47A      1.535419
      48A      1.614516    49A      1.771014    50A      1.812892
      51A      1.956508    52A      2.059912    53A      2.108597
      54A      2.721553    55A      2.822965    56A      2.830815
      57A      2.876538    58A      2.931310    59A      2.989862
      60A      3.023317    61A      3.093509    62A      3.120642
      63A      3.176476    64A      3.210853    65A      3.218052
      66A      3.339059    67A      3.370756    68A      3.408758
      69A      3.519448    70A      3.536933    71A      3.597782
      72A      3.604684    73A      3.730512    74A      3.806922
      75A      3.984322    76A      4.032960    77A      4.094514
      78A      4.138910    79A      4.202790    80A      4.203959
      81A      4.214458    82A      4.302593    83A      4.373138
      84A      4.496798    85A      4.511786    86A      4.534518
      87A      4.866245    88A      4.928776    89A      5.149863
      90A      5.179718    91A      5.286119    92A      5.331709

    Final Occupation by Irrep:
              A
    DOCC [     8 ]
    SOCC [     1 ]

  @DF-UKS Final Energy:   -79.16616285007854

   => Energetics <=

    Nuclear Repulsion Energy =             36.9298303184145382
    One-Electron Energy =                -178.0725803154909386
    Two-Electron Energy =                  72.2578269622702578
    DFT Exchange-Correlation Energy =     -10.2812398152723912
    Empirical Dispersion Energy =           0.0000000000000000
    VV10 Nonlocal Energy =                  0.0000000000000000
    Total Energy =                        -79.1661628500785355

  UHF NO Occupations:
  HONO-2 :    7  A 1.9997317
  HONO-1 :    8  A 1.9987092
  HONO-0 :    9  A 1.0000000
  LUNO+0 :   10  A 0.0012908
  LUNO+1 :   11  A 0.0002683
  LUNO+2 :   12  A 0.0002503
  LUNO+3 :   13  A 0.0002221

Computation Completed

Properties will be evaluated at   0.000000,   0.000000,   0.000000 [a0]

Properties computed using the SCF density matrix

  Nuclear Dipole Moment: [e a0]
     X:     0.1468      Y:    -0.6562      Z:     0.0065

  Electronic Dipole Moment: [e a0]
     X:    -0.1042      Y:     0.5712      Z:    -0.0062

  Dipole Moment: [e a0]
     X:     0.0426      Y:    -0.0850      Z:     0.0003     Total:     0.0951

  Dipole Moment: [D]
     X:     0.1082      Y:    -0.2160      Z:     0.0007     Total:     0.2416

*** tstop() called on n067 at Fri Nov  5 19:12:23 2021
Module time:
	user time   =      50.20 seconds =       0.84 minutes
	system time =       0.55 seconds =       0.01 minutes
	total time  =         51 seconds =       0.85 minutes
Total time:
	user time   =      50.20 seconds =       0.84 minutes
	system time =       0.55 seconds =       0.01 minutes
	total time  =         51 seconds =       0.85 minutes
Grab this energy -79.16616285007854
    Psi4 stopped on: Friday, 05 November 2021 07:12PM
    Psi4 wall time for execution: 0:00:50.80

*** Psi4 exiting successfully. Buy a developer a beer!
