                               Psi4 1.4a2.dev629

  ==> Input File <==

--------------------------------------------------------------------------
import os
memory 14 GB

molecule {
 C   -0.0054530853   -1.3545383358   -0.0000000000
 C   -0.0196339228    1.4666085164   -0.0000000000
 H    1.9286933817   -2.1126096318   -0.0000000000
 H   -0.9444187445   -2.1162467456    1.6726677885
 H   -0.9444187445   -2.1162467456   -1.6726677885
 H    0.1281418459    2.5106713373   -1.7567960521
 H    0.1281418459    2.5106713373    1.7567960521
units bohr
0 2
}

basis {

assign 6-31g_2dfp_

[ 6-31g_2dfp_ ]

spherical

!----------------------------------------------------------------------
! Basis Set Exchange
! Version v0.8.13
! https://www.basissetexchange.org
!----------------------------------------------------------------------
!   Basis set: 6-31G(2df,p)
! Description: 6-31G(2df,p)
!        Role: orbital
!     Version: 0  (Data from the original Basis Set Exchange)
!----------------------------------------------------------------------

****
H     0
S    3   1.00
     18.7311370              0.03349460
      2.8253937              0.23472695
      0.6401217              0.81375733
S    1   1.00
      0.1612778              1.00000000
P    1   1.00
      1.5000000              1.0000000
P    1   1.00
      0.3750000              1.0000000
****
B     0
S    6   1.00
   2068.8823000              0.0018663
    310.6495700              0.0142515
     70.6830330              0.0695516
     19.8610800              0.2325729
      6.2993048              0.4670787
      2.1270270              0.3634314
SP   3   1.00
      4.7279710             -0.1303938              0.0745976
      1.1903377             -0.1307889              0.3078467
      0.3594117              1.1309444              0.7434568
SP   1   1.00
      0.1267512              1.0000000              1.0000000
D    1   1.00
      0.8020000              1.0000000
D    1   1.00
      0.2005000              1.0000000
F    1   1.00
      0.5000000              1.0000000
****
C     0
S    6   1.00
   3047.5249000              0.0018347
    457.3695100              0.0140373
    103.9486900              0.0688426
     29.2101550              0.2321844
      9.2866630              0.4679413
      3.1639270              0.3623120
SP   3   1.00
      7.8682724             -0.1193324              0.0689991
      1.8812885             -0.1608542              0.3164240
      0.5442493              1.1434564              0.7443083
SP   1   1.00
      0.1687144              1.0000000              1.0000000
D    1   1.00
      1.2520000              1.0000000
D    1   1.00
      0.3130000              1.0000000
F    1   1.00
      0.8000000              1.0000000
****
N     0
S    6   1.00
   4173.5110000              0.0018348
    627.4579000              0.0139950
    142.9021000              0.0685870
     40.2343300              0.2322410
     12.8202100              0.4690700
      4.3904370              0.3604550
SP   3   1.00
     11.6263580             -0.1149610              0.0675800
      2.7162800             -0.1691180              0.3239070
      0.7722180              1.1458520              0.7408950
SP   1   1.00
      0.2120313              1.0000000              1.0000000
D    1   1.00
      1.8260000              1.0000000
D    1   1.00
      0.4565000              1.0000000
F    1   1.00
      1.0000000              1.0000000
****
O     0
S    6   1.00
   5484.6717000              0.0018311
    825.2349500              0.0139501
    188.0469600              0.0684451
     52.9645000              0.2327143
     16.8975700              0.4701930
      5.7996353              0.3585209
SP   3   1.00
     15.5396160             -0.1107775              0.0708743
      3.5999336             -0.1480263              0.3397528
      1.0137618              1.1307670              0.7271586
SP   1   1.00
      0.2700058              1.0000000              1.0000000
D    1   1.00
      2.5840000              1.0000000
D    1   1.00
      0.6460000              1.0000000
F    1   1.00
      1.4000000              1.0000000
****
F     0
S    6   1.00
   7001.7130900              0.0018196169
   1051.3660900              0.0139160796
    239.2856900              0.0684053245
     67.3974453              0.233185760
     21.5199573              0.471267439
      7.40310130             0.356618546
SP   3   1.00
     20.8479528             -0.108506975            0.0716287243
      4.80830834            -0.146451658            0.3459121030
      1.34406986             1.128688580            0.7224699570
SP   1   1.00
      0.358151393            1.0000000              1.0000000
D    1   1.00
      3.5000000              1.0000000
D    1   1.00
      0.8750000              1.0000000
F    1   1.00
      1.8500000              1.0000000
****
Al     0
S    6   1.00
  13983.1000000              0.00194267
   2098.7500000              0.0148599
    477.7050000              0.0728494
    134.3600000              0.2468300
     42.8709000              0.4872580
     14.5189000              0.3234960
SP   6   1.00
    239.6680000             -0.00292619             0.00460285
     57.4419000             -0.0374080              0.0331990
     18.2859000             -0.1144870              0.1362820
      6.5991400              0.1156350              0.3304760
      2.4904900              0.6125950              0.4491460
      0.9445400              0.3937990              0.2657040
SP   3   1.00
      1.2779000             -0.2276060             -0.0175130
      0.3975900              0.00144583             0.2445330
      0.1600950              1.0927900              0.8049340
SP   1   1.00
      0.0556577              1.0000000              1.0000000
D    1   1.00
      0.6500000              1.0000000
D    1   1.00
      0.1625000              1.0000000
F    1   1.00
      0.2500000              1.0000000
****
Si     0
S    6   1.00
  16115.9000000              0.00195948
   2425.5800000              0.01492880
    553.8670000              0.07284780
    156.3400000              0.24613000
     50.0683000              0.48591400
     17.0178000              0.32500200
SP   6   1.00
    292.7180000             -0.00278094             0.00443826
     69.8731000             -0.03571460             0.03266790
     22.3363000             -0.11498500             0.13472100
      8.1503900              0.09356340             0.32867800
      3.1345800              0.60301700             0.44964000
      1.2254300              0.41895900             0.26137200
SP   3   1.00
      1.7273800             -0.24463000            -0.01779510
      0.5729220              0.00431572             0.25353900
      0.2221920              1.09818000             0.80066900
SP   1   1.00
      0.0778369              1.00000000             1.00000000
D    1   1.00
      0.9000000              1.0000000
D    1   1.00
      0.2250000              1.0000000
F    1   1.00
      0.3200000              1.0000000
****
P     0
S    6   1.00
  19413.3000000              0.0018516
   2909.4200000              0.0142062
    661.3640000              0.0699995
    185.7590000              0.2400790
     59.1943000              0.4847620
     20.0310000              0.3352000
SP   6   1.00
    339.4780000             -0.00278217             0.00456462
     81.0101000             -0.0360499              0.03369360
     25.8780000             -0.1166310              0.13975500
      9.4522100              0.0968328              0.33936200
      3.6656600              0.6144180              0.45092100
      1.4674600              0.4037980              0.23858600
SP   3   1.00
      2.1562300             -0.2529230             -0.01776530
      0.7489970              0.0328517              0.27405800
      0.2831450              1.0812500              0.78542100
SP   1   1.00
      0.0998317              1.0000000              1.00000000
D    1   1.00
      1.1000000              1.0000000
D    1   1.00
      0.2750000              1.0000000
F    1   1.00
      0.4500000              1.0000000
****
S     0
S    6   1.00
  21917.1000000              0.0018690
   3301.4900000              0.0142300
    754.1460000              0.0696960
    212.7110000              0.2384870
     67.9896000              0.4833070
     23.0515000              0.3380740
SP   6   1.00
    423.7350000             -0.0023767              0.0040610
    100.7100000             -0.0316930              0.0306810
     32.1599000             -0.1133170              0.1304520
     11.8079000              0.0560900              0.3272050
      4.6311000              0.5922550              0.4528510
      1.8702500              0.4550060              0.2560420
SP   3   1.00
      2.6158400             -0.2503740             -0.0145110
      0.9221670              0.0669570              0.3102630
      0.3412870              1.0545100              0.7544830
SP   1   1.00
      0.1171670              1.0000000              1.0000000
D    1   1.00
      1.3000000              1.0000000
D    1   1.00
      0.3250000              1.0000000
F    1   1.00
      0.5500000              1.0000000
****
Cl     0
S    6   1.00
  25180.1000000              0.0018330
   3780.3500000              0.0140340
    860.4740000              0.0690970
    242.1450000              0.2374520
     77.3349000              0.4830340
     26.2470000              0.3398560
SP   6   1.00
    491.7650000             -0.0022974              0.0039894
    116.9840000             -0.0307140              0.0303180
     37.4153000             -0.1125280              0.1298800
     13.7834000              0.0450160              0.3279510
      5.4521500              0.5893530              0.4535270
      2.2258800              0.4652060              0.2521540
SP   3   1.00
      3.1864900             -0.2518300             -0.0142990
      1.1442700              0.0615890              0.3235720
      0.4203770              1.0601800              0.7435070
SP   1   1.00
      0.1426570              1.0000000              1.0000000
D    1   1.00
      1.5000000              1.0000000
D    1   1.00
      0.3750000              1.0000000
F    1   1.00
      0.7000000              1.0000000
****
}

set {
reference uhf
freeze_core true
e_convergence 10
d_convergence 10
dft_spherical_points 1202
dft_radial_points 99
}

e = energy('b3lyp')

print_out('Grab this energy {0}'.format(e))
--------------------------------------------------------------------------

    Molecular point group: cs

    Geometry (in Bohr), charge = 0, multiplicity = 2:

       Center              X                  Y                   Z               Mass
    ------------   -----------------  -----------------  -----------------  -----------------
         C           -0.005363991331    -1.354907604866     0.000000000000    12.000000000000
         C           -0.019544828831     1.466239247334     0.000000000000    12.000000000000
         H            1.928782475669    -2.112978900866     0.000000000000     1.007825032230
         H           -0.944329650531    -2.116616014666     1.672667788500     1.007825032230
         H           -0.944329650531    -2.116616014666    -1.672667788500     1.007825032230
         H            0.128230939869     2.510302068234    -1.756796052100     1.007825032230
         H            0.128230939869     2.510302068234     1.756796052100     1.007825032230

  Charge       = 0
  Multiplicity = 2
  Basis Set: ANONYMOUSBF259AC3
    Blend: 6-31G_2DFP_
  Basis Set: (ANONYMOUSBF259AC3 AUX)
    Blend: DEF2-UNIVERSAL-JKFIT

    Orbital Energies [Eh]
    ---------------------

    Alpha Occupied:

       1Ap   -10.180183     2Ap   -10.174314     3Ap    -0.751244
       4Ap    -0.604416     1App   -0.446052     5Ap    -0.410411
       6Ap    -0.384777     2App   -0.354156     7Ap    -0.197415

    Alpha Virtual:

       8Ap     0.098734     9Ap     0.127447     3App    0.140673
      10Ap     0.165664     4App    0.202868    11Ap     0.246732
      12Ap     0.430211     5App    0.440533    13Ap     0.446232
       6App    0.449996    14Ap     0.478419    15Ap     0.520878
      16Ap     0.543655     7App    0.573622    17Ap     0.593211
       8App    0.618321    18Ap     0.633702    19Ap     0.639493
       9App    0.649151    20Ap     0.741197    10App    0.821490
      11App    0.865769    21Ap     0.930949    22Ap     0.975471
      12App    1.024691    13App    1.070465    23Ap     1.082079
      24Ap     1.085906    25Ap     1.179920    14App    1.220338
      26Ap     1.253125    15App    1.322852    27Ap     1.344248
      28Ap     1.367107    29Ap     1.419514    16App    1.445248
      17App    1.508083    30Ap     1.523294    31Ap     1.599854
      32Ap     1.762671    33Ap     1.805635    18App    1.951557
      19App    2.044440    34Ap     2.102228    35Ap     2.698099
      36Ap     2.800720    20App    2.827753    21App    2.860026
      22App    2.928570    37Ap     2.962157    38Ap     2.986161
      23App    3.080900    39Ap     3.093810    24App    3.159209
      40Ap     3.170494    25App    3.198547    26App    3.301913
      41Ap     3.356879    42Ap     3.390699    43Ap     3.493975
      27App    3.499577    28App    3.580209    44Ap     3.594060
      45Ap     3.710934    29App    3.806201    46Ap     3.972739
      47Ap     4.021769    48Ap     4.084175    49Ap     4.127764
      30App    4.183774    31App    4.197306    50Ap     4.204025
      51Ap     4.292770    32App    4.368057    33App    4.487170
      52Ap     4.499363    53Ap     4.525327    34App    4.858037
      54Ap     4.923559    35App    5.135000    55Ap     5.165635
      56Ap     5.277911    36App    5.326917

    Beta Occupied:

       1Ap   -10.175134     2Ap   -10.166229     3Ap    -0.734641
       4Ap    -0.579723     1App   -0.439934     5Ap    -0.395771
       6Ap    -0.376850     2App   -0.349715

    Beta Virtual:

       7Ap    -0.036091     8Ap     0.101480     9Ap     0.138614
       3App    0.142321    10Ap     0.170501     4App    0.206478
      11Ap     0.252495     5App    0.441585    12Ap     0.444962
       6App    0.455703    13Ap     0.459182    14Ap     0.487029
      15Ap     0.548914     7App    0.587112    16Ap     0.592309
      17Ap     0.602022     8App    0.623516    18Ap     0.641645
      19Ap     0.645086     9App    0.656577    20Ap     0.766662
      10App    0.821235    11App    0.868797    21Ap     0.948598
      22Ap     0.986647    12App    1.033310    13App    1.078518
      23Ap     1.089599    24Ap     1.100399    25Ap     1.183516
      14App    1.228070    26Ap     1.265501    15App    1.329468
      27Ap     1.351715    28Ap     1.373440    29Ap     1.425486
      16App    1.452714    17App    1.512634    30Ap     1.534341
      31Ap     1.611203    32Ap     1.769192    33Ap     1.811808
      18App    1.955988    19App    2.054283    34Ap     2.107732
      35Ap     2.721345    36Ap     2.822604    20App    2.829614
      21App    2.876085    22App    2.931121    37Ap     2.989184
      38Ap     3.022848    23App    3.094222    39Ap     3.120916
      24App    3.177053    40Ap     3.210739    25App    3.218286
      26App    3.339955    41Ap     3.369391    42Ap     3.408996
      27App    3.519855    43Ap     3.537182    28App    3.596765
      44Ap     3.604198    45Ap     3.729282    29App    3.806495
      46Ap     3.983562    47Ap     4.030177    48Ap     4.091163
      49Ap     4.137253    30App    4.198104    31App    4.202081
      50Ap     4.213271    51Ap     4.300667    32App    4.372273
      33App    4.494004    52Ap     4.509961    53Ap     4.532655
      34App    4.859353    54Ap     4.927858    35App    5.138262
      55Ap     5.176484    56Ap     5.285009    36App    5.329448

    Final Occupation by Irrep:
             Ap   App
    DOCC [     6,    2 ]
    SOCC [     1,    0 ]

  @DF-UKS Final Energy:   -79.16616743202739

   => Energetics <=

    Nuclear Repulsion Energy =             36.8996382087952028
    One-Electron Energy =                -178.0155317066598002
    Two-Electron Energy =                  72.2287368913402474
    DFT Exchange-Correlation Energy =     -10.2790108255030468
    Empirical Dispersion Energy =           0.0000000000000000
    VV10 Nonlocal Energy =                  0.0000000000000000
    Total Energy =                        -79.1661674320273931

  UHF NO Occupations:
  HONO-2 :    2App 1.9997292
  HONO-1 :    6 Ap 1.9987017
  HONO-0 :    7 Ap 1.0000000
  LUNO+0 :    8 Ap 0.0012983
  LUNO+1 :    3App 0.0002708
  LUNO+2 :    9 Ap 0.0002508
  LUNO+3 :   10 Ap 0.0002234

Computation Completed

Properties will be evaluated at   0.000000,   0.000000,   0.000000 [a0]

Properties computed using the SCF density matrix

  Nuclear Dipole Moment: [e a0]
     X:     0.1471      Y:    -0.6576      Z:     0.0000

  Electronic Dipole Moment: [e a0]
     X:    -0.1047      Y:     0.5720      Z:     0.0000

  Dipole Moment: [e a0]
     X:     0.0425      Y:    -0.0856      Z:     0.0000     Total:     0.0956

  Dipole Moment: [D]
     X:     0.1080      Y:    -0.2177      Z:     0.0000     Total:     0.2430

*** tstop() called on n091 at Fri Nov  5 19:20:49 2021
Module time:
	user time   =      46.44 seconds =       0.77 minutes
	system time =       0.58 seconds =       0.01 minutes
	total time  =         47 seconds =       0.78 minutes
Total time:
	user time   =      46.44 seconds =       0.77 minutes
	system time =       0.58 seconds =       0.01 minutes
	total time  =         47 seconds =       0.78 minutes
Grab this energy -79.1661674320274
    Psi4 stopped on: Friday, 05 November 2021 07:20PM
    Psi4 wall time for execution: 0:00:47.07

*** Psi4 exiting successfully. Buy a developer a beer!
