                               Psi4 1.4a2.dev629

  ==> Input File <==

--------------------------------------------------------------------------
import os
memory 14 GB

molecule {
 C   -0.0078706119   -1.3545170990   -0.0009618730
 C   -0.0211342489    1.4655563895    0.0009513906
 H    1.9285017023   -2.1116722092   -0.0022667427
 H   -0.9433582704   -2.1097964490    1.6707379085
 H   -0.9432433583   -2.1223364489   -1.6744863724
 H    0.1290441897    2.5078016124   -1.7464343063
 H    0.1291131738    2.5132739364    1.7524599952
units bohr
0 2
}

basis {

assign 6-31g_2dfp_

[ 6-31g_2dfp_ ]

spherical

!----------------------------------------------------------------------
! Basis Set Exchange
! Version v0.8.13
! https://www.basissetexchange.org
!----------------------------------------------------------------------
!   Basis set: 6-31G(2df,p)
! Description: 6-31G(2df,p)
!        Role: orbital
!     Version: 0  (Data from the original Basis Set Exchange)
!----------------------------------------------------------------------

****
H     0
S    3   1.00
     18.7311370              0.03349460
      2.8253937              0.23472695
      0.6401217              0.81375733
S    1   1.00
      0.1612778              1.00000000
P    1   1.00
      1.5000000              1.0000000
P    1   1.00
      0.3750000              1.0000000
****
B     0
S    6   1.00
   2068.8823000              0.0018663
    310.6495700              0.0142515
     70.6830330              0.0695516
     19.8610800              0.2325729
      6.2993048              0.4670787
      2.1270270              0.3634314
SP   3   1.00
      4.7279710             -0.1303938              0.0745976
      1.1903377             -0.1307889              0.3078467
      0.3594117              1.1309444              0.7434568
SP   1   1.00
      0.1267512              1.0000000              1.0000000
D    1   1.00
      0.8020000              1.0000000
D    1   1.00
      0.2005000              1.0000000
F    1   1.00
      0.5000000              1.0000000
****
C     0
S    6   1.00
   3047.5249000              0.0018347
    457.3695100              0.0140373
    103.9486900              0.0688426
     29.2101550              0.2321844
      9.2866630              0.4679413
      3.1639270              0.3623120
SP   3   1.00
      7.8682724             -0.1193324              0.0689991
      1.8812885             -0.1608542              0.3164240
      0.5442493              1.1434564              0.7443083
SP   1   1.00
      0.1687144              1.0000000              1.0000000
D    1   1.00
      1.2520000              1.0000000
D    1   1.00
      0.3130000              1.0000000
F    1   1.00
      0.8000000              1.0000000
****
N     0
S    6   1.00
   4173.5110000              0.0018348
    627.4579000              0.0139950
    142.9021000              0.0685870
     40.2343300              0.2322410
     12.8202100              0.4690700
      4.3904370              0.3604550
SP   3   1.00
     11.6263580             -0.1149610              0.0675800
      2.7162800             -0.1691180              0.3239070
      0.7722180              1.1458520              0.7408950
SP   1   1.00
      0.2120313              1.0000000              1.0000000
D    1   1.00
      1.8260000              1.0000000
D    1   1.00
      0.4565000              1.0000000
F    1   1.00
      1.0000000              1.0000000
****
O     0
S    6   1.00
   5484.6717000              0.0018311
    825.2349500              0.0139501
    188.0469600              0.0684451
     52.9645000              0.2327143
     16.8975700              0.4701930
      5.7996353              0.3585209
SP   3   1.00
     15.5396160             -0.1107775              0.0708743
      3.5999336             -0.1480263              0.3397528
      1.0137618              1.1307670              0.7271586
SP   1   1.00
      0.2700058              1.0000000              1.0000000
D    1   1.00
      2.5840000              1.0000000
D    1   1.00
      0.6460000              1.0000000
F    1   1.00
      1.4000000              1.0000000
****
F     0
S    6   1.00
   7001.7130900              0.0018196169
   1051.3660900              0.0139160796
    239.2856900              0.0684053245
     67.3974453              0.233185760
     21.5199573              0.471267439
      7.40310130             0.356618546
SP   3   1.00
     20.8479528             -0.108506975            0.0716287243
      4.80830834            -0.146451658            0.3459121030
      1.34406986             1.128688580            0.7224699570
SP   1   1.00
      0.358151393            1.0000000              1.0000000
D    1   1.00
      3.5000000              1.0000000
D    1   1.00
      0.8750000              1.0000000
F    1   1.00
      1.8500000              1.0000000
****
Al     0
S    6   1.00
  13983.1000000              0.00194267
   2098.7500000              0.0148599
    477.7050000              0.0728494
    134.3600000              0.2468300
     42.8709000              0.4872580
     14.5189000              0.3234960
SP   6   1.00
    239.6680000             -0.00292619             0.00460285
     57.4419000             -0.0374080              0.0331990
     18.2859000             -0.1144870              0.1362820
      6.5991400              0.1156350              0.3304760
      2.4904900              0.6125950              0.4491460
      0.9445400              0.3937990              0.2657040
SP   3   1.00
      1.2779000             -0.2276060             -0.0175130
      0.3975900              0.00144583             0.2445330
      0.1600950              1.0927900              0.8049340
SP   1   1.00
      0.0556577              1.0000000              1.0000000
D    1   1.00
      0.6500000              1.0000000
D    1   1.00
      0.1625000              1.0000000
F    1   1.00
      0.2500000              1.0000000
****
Si     0
S    6   1.00
  16115.9000000              0.00195948
   2425.5800000              0.01492880
    553.8670000              0.07284780
    156.3400000              0.24613000
     50.0683000              0.48591400
     17.0178000              0.32500200
SP   6   1.00
    292.7180000             -0.00278094             0.00443826
     69.8731000             -0.03571460             0.03266790
     22.3363000             -0.11498500             0.13472100
      8.1503900              0.09356340             0.32867800
      3.1345800              0.60301700             0.44964000
      1.2254300              0.41895900             0.26137200
SP   3   1.00
      1.7273800             -0.24463000            -0.01779510
      0.5729220              0.00431572             0.25353900
      0.2221920              1.09818000             0.80066900
SP   1   1.00
      0.0778369              1.00000000             1.00000000
D    1   1.00
      0.9000000              1.0000000
D    1   1.00
      0.2250000              1.0000000
F    1   1.00
      0.3200000              1.0000000
****
P     0
S    6   1.00
  19413.3000000              0.0018516
   2909.4200000              0.0142062
    661.3640000              0.0699995
    185.7590000              0.2400790
     59.1943000              0.4847620
     20.0310000              0.3352000
SP   6   1.00
    339.4780000             -0.00278217             0.00456462
     81.0101000             -0.0360499              0.03369360
     25.8780000             -0.1166310              0.13975500
      9.4522100              0.0968328              0.33936200
      3.6656600              0.6144180              0.45092100
      1.4674600              0.4037980              0.23858600
SP   3   1.00
      2.1562300             -0.2529230             -0.01776530
      0.7489970              0.0328517              0.27405800
      0.2831450              1.0812500              0.78542100
SP   1   1.00
      0.0998317              1.0000000              1.00000000
D    1   1.00
      1.1000000              1.0000000
D    1   1.00
      0.2750000              1.0000000
F    1   1.00
      0.4500000              1.0000000
****
S     0
S    6   1.00
  21917.1000000              0.0018690
   3301.4900000              0.0142300
    754.1460000              0.0696960
    212.7110000              0.2384870
     67.9896000              0.4833070
     23.0515000              0.3380740
SP   6   1.00
    423.7350000             -0.0023767              0.0040610
    100.7100000             -0.0316930              0.0306810
     32.1599000             -0.1133170              0.1304520
     11.8079000              0.0560900              0.3272050
      4.6311000              0.5922550              0.4528510
      1.8702500              0.4550060              0.2560420
SP   3   1.00
      2.6158400             -0.2503740             -0.0145110
      0.9221670              0.0669570              0.3102630
      0.3412870              1.0545100              0.7544830
SP   1   1.00
      0.1171670              1.0000000              1.0000000
D    1   1.00
      1.3000000              1.0000000
D    1   1.00
      0.3250000              1.0000000
F    1   1.00
      0.5500000              1.0000000
****
Cl     0
S    6   1.00
  25180.1000000              0.0018330
   3780.3500000              0.0140340
    860.4740000              0.0690970
    242.1450000              0.2374520
     77.3349000              0.4830340
     26.2470000              0.3398560
SP   6   1.00
    491.7650000             -0.0022974              0.0039894
    116.9840000             -0.0307140              0.0303180
     37.4153000             -0.1125280              0.1298800
     13.7834000              0.0450160              0.3279510
      5.4521500              0.5893530              0.4535270
      2.2258800              0.4652060              0.2521540
SP   3   1.00
      3.1864900             -0.2518300             -0.0142990
      1.1442700              0.0615890              0.3235720
      0.4203770              1.0601800              0.7435070
SP   1   1.00
      0.1426570              1.0000000              1.0000000
D    1   1.00
      1.5000000              1.0000000
D    1   1.00
      0.3750000              1.0000000
F    1   1.00
      0.7000000              1.0000000
****
}

set {
reference uhf
freeze_core true
e_convergence 10
d_convergence 10
dft_spherical_points 1202
dft_radial_points 99
}

e = energy('b3lyp')

print_out('Grab this energy {0}'.format(e))
--------------------------------------------------------------------------

    Molecular point group: c1

    Geometry (in Bohr), charge = 0, multiplicity = 2:

       Center              X                  Y                   Z               Mass
    ------------   -----------------  -----------------  -----------------  -----------------
         C           -0.006298493831    -1.354496145417    -0.000957905095    12.000000000000
         C           -0.019562130831     1.465577343083     0.000955358505    12.000000000000
         H            1.930073820369    -2.111651255617    -0.002262774795     1.007825032230
         H           -0.941786152331    -2.109775495417     1.670741876405     1.007825032230
         H           -0.941671240231    -2.122315495317    -1.674482404495     1.007825032230
         H            0.130616307769     2.507822565983    -1.746430338395     1.007825032230
         H            0.130685291869     2.513294889983     1.752463963105     1.007825032230

  Charge       = 0
  Multiplicity = 2
  Basis Set: ANONYMOUS8AABC41B
    Blend: 6-31G_2DFP_
  Basis Set: (ANONYMOUS8AABC41B AUX)
    Blend: DEF2-UNIVERSAL-JKFIT

    Orbital Energies [Eh]
    ---------------------

    Alpha Occupied:

       1A    -10.179511     2A    -10.174218     3A     -0.751508
       4A     -0.604984     5A     -0.446380     6A     -0.410235
       7A     -0.385217     8A     -0.354476     9A     -0.197326

    Alpha Virtual:

      10A      0.099027    11A      0.127945    12A      0.141214
      13A      0.165510    14A      0.203277    15A      0.247211
      16A      0.430368    17A      0.440542    18A      0.446269
      19A      0.449842    20A      0.478605    21A      0.520934
      22A      0.543875    23A      0.574363    24A      0.594044
      25A      0.618921    26A      0.633538    27A      0.639957
      28A      0.650162    29A      0.741252    30A      0.822582
      31A      0.865832    32A      0.931191    33A      0.977137
      34A      1.025066    35A      1.071245    36A      1.083687
      37A      1.086256    38A      1.179128    39A      1.220852
      40A      1.253401    41A      1.323887    42A      1.344994
      43A      1.366824    44A      1.419986    45A      1.445829
      46A      1.509806    47A      1.524517    48A      1.603428
      49A      1.763754    50A      1.806999    51A      1.952765
      52A      2.049830    53A      2.102558    54A      2.698201
      55A      2.801022    56A      2.829118    57A      2.860680
      58A      2.928624    59A      2.962927    60A      2.986620
      61A      3.080492    62A      3.093486    63A      3.158298
      64A      3.170391    65A      3.198864    66A      3.300838
      67A      3.358662    68A      3.390161    69A      3.493675
      70A      3.499688    71A      3.581543    72A      3.594097
      73A      3.712478    74A      3.805959    75A      3.973666
      76A      4.023742    77A      4.088129    78A      4.129402
      79A      4.189137    80A      4.198589    81A      4.205297
      82A      4.294508    83A      4.369397    84A      4.489517
      85A      4.499114    86A      4.528026    87A      4.865203
      88A      4.924412    89A      5.146491    90A      5.168747
      91A      5.279110    92A      5.329354

    Beta Occupied:

       1A    -10.175038     2A    -10.165570     3A     -0.734870
       4A     -0.580368     5A     -0.440253     6A     -0.395540
       7A     -0.377287     8A     -0.350006

    Beta Virtual:

       9A     -0.036082    10A      0.101684    11A      0.139072
      12A      0.142875    13A      0.170362    14A      0.206876
      15A      0.252967    16A      0.441601    17A      0.445073
      18A      0.455527    19A      0.459296    20A      0.487360
      21A      0.549127    22A      0.587875    23A      0.592406
      24A      0.602778    25A      0.624147    26A      0.641498
      27A      0.645675    28A      0.657598    29A      0.766619
      30A      0.822373    31A      0.868874    32A      0.948914
      33A      0.988319    34A      1.033748    35A      1.079141
      36A      1.089130    37A      1.102829    38A      1.182788
      39A      1.228527    40A      1.265733    41A      1.330526
      42A      1.352424    43A      1.373184    44A      1.425952
      45A      1.453285    46A      1.514390    47A      1.535759
      48A      1.614646    49A      1.770345    50A      1.813162
      51A      1.957189    52A      2.059773    53A      2.108075
      54A      2.721409    55A      2.822710    56A      2.831201
      57A      2.876659    58A      2.931158    59A      2.989750
      60A      3.023375    61A      3.093871    62A      3.120729
      63A      3.176139    64A      3.210463    65A      3.217805
      66A      3.339509    67A      3.371505    68A      3.408472
      69A      3.519604    70A      3.536684    71A      3.598296
      72A      3.604273    73A      3.730657    74A      3.806230
      75A      3.984234    76A      4.033088    77A      4.094535
      78A      4.138876    79A      4.202709    80A      4.204272
      81A      4.214625    82A      4.302501    83A      4.373663
      84A      4.496413    85A      4.509755    86A      4.535252
      87A      4.866559    88A      4.928754    89A      5.149914
      90A      5.179534    91A      5.286207    92A      5.331887

    Final Occupation by Irrep:
              A
    DOCC [     8 ]
    SOCC [     1 ]

  @DF-UKS Final Energy:   -79.16615824696972

   => Energetics <=

    Nuclear Repulsion Energy =             36.9288111766855991
    One-Electron Energy =                -178.0705163046953885
    Two-Electron Energy =                  72.2567346570267830
    DFT Exchange-Correlation Energy =     -10.2811877759867052
    Empirical Dispersion Energy =           0.0000000000000000
    VV10 Nonlocal Energy =                  0.0000000000000000
    Total Energy =                        -79.1661582469697152

  UHF NO Occupations:
  HONO-2 :    7  A 1.9997317
  HONO-1 :    8  A 1.9987102
  HONO-0 :    9  A 1.0000000
  LUNO+0 :   10  A 0.0012898
  LUNO+1 :   11  A 0.0002683
  LUNO+2 :   12  A 0.0002522
  LUNO+3 :   13  A 0.0002225

Computation Completed

Properties will be evaluated at   0.000000,   0.000000,   0.000000 [a0]

Properties computed using the SCF density matrix

  Nuclear Dipole Moment: [e a0]
     X:     0.1528      Y:    -0.6561      Z:     0.0000

  Electronic Dipole Moment: [e a0]
     X:    -0.1098      Y:     0.5709      Z:     0.0002

  Dipole Moment: [e a0]
     X:     0.0430      Y:    -0.0852      Z:     0.0003     Total:     0.0954

  Dipole Moment: [D]
     X:     0.1093      Y:    -0.2165      Z:     0.0007     Total:     0.2426

*** tstop() called on n045 at Fri Nov  5 18:31:20 2021
Module time:
	user time   =      61.21 seconds =       1.02 minutes
	system time =       0.43 seconds =       0.01 minutes
	total time  =         62 seconds =       1.03 minutes
Total time:
	user time   =      61.21 seconds =       1.02 minutes
	system time =       0.43 seconds =       0.01 minutes
	total time  =         62 seconds =       1.03 minutes
Grab this energy -79.16615824696972
    Psi4 stopped on: Friday, 05 November 2021 06:31PM
    Psi4 wall time for execution: 0:01:01.68

*** Psi4 exiting successfully. Buy a developer a beer!
