                               Psi4 1.4a2.dev629

  ==> Input File <==

--------------------------------------------------------------------------
import os
memory 14 GB

molecule {
 C   -0.0054834104   -1.3585673199   -0.0001631243
 C   -0.0193331889    1.4693559408   -0.0004008620
 H    1.9286895383   -2.1172274496    0.0025762875
 H   -0.9473382377   -2.1214277726    1.6716096180
 H   -0.9420920364   -2.1210812180   -1.6740657489
 H    0.1236963944    2.5183188656   -1.7482791406
 H    0.1329135172    2.5189386858    1.7487229703
units bohr
0 2
}

basis {

assign 6-31g_2dfp_

[ 6-31g_2dfp_ ]

spherical

!----------------------------------------------------------------------
! Basis Set Exchange
! Version v0.8.13
! https://www.basissetexchange.org
!----------------------------------------------------------------------
!   Basis set: 6-31G(2df,p)
! Description: 6-31G(2df,p)
!        Role: orbital
!     Version: 0  (Data from the original Basis Set Exchange)
!----------------------------------------------------------------------

****
H     0
S    3   1.00
     18.7311370              0.03349460
      2.8253937              0.23472695
      0.6401217              0.81375733
S    1   1.00
      0.1612778              1.00000000
P    1   1.00
      1.5000000              1.0000000
P    1   1.00
      0.3750000              1.0000000
****
B     0
S    6   1.00
   2068.8823000              0.0018663
    310.6495700              0.0142515
     70.6830330              0.0695516
     19.8610800              0.2325729
      6.2993048              0.4670787
      2.1270270              0.3634314
SP   3   1.00
      4.7279710             -0.1303938              0.0745976
      1.1903377             -0.1307889              0.3078467
      0.3594117              1.1309444              0.7434568
SP   1   1.00
      0.1267512              1.0000000              1.0000000
D    1   1.00
      0.8020000              1.0000000
D    1   1.00
      0.2005000              1.0000000
F    1   1.00
      0.5000000              1.0000000
****
C     0
S    6   1.00
   3047.5249000              0.0018347
    457.3695100              0.0140373
    103.9486900              0.0688426
     29.2101550              0.2321844
      9.2866630              0.4679413
      3.1639270              0.3623120
SP   3   1.00
      7.8682724             -0.1193324              0.0689991
      1.8812885             -0.1608542              0.3164240
      0.5442493              1.1434564              0.7443083
SP   1   1.00
      0.1687144              1.0000000              1.0000000
D    1   1.00
      1.2520000              1.0000000
D    1   1.00
      0.3130000              1.0000000
F    1   1.00
      0.8000000              1.0000000
****
N     0
S    6   1.00
   4173.5110000              0.0018348
    627.4579000              0.0139950
    142.9021000              0.0685870
     40.2343300              0.2322410
     12.8202100              0.4690700
      4.3904370              0.3604550
SP   3   1.00
     11.6263580             -0.1149610              0.0675800
      2.7162800             -0.1691180              0.3239070
      0.7722180              1.1458520              0.7408950
SP   1   1.00
      0.2120313              1.0000000              1.0000000
D    1   1.00
      1.8260000              1.0000000
D    1   1.00
      0.4565000              1.0000000
F    1   1.00
      1.0000000              1.0000000
****
O     0
S    6   1.00
   5484.6717000              0.0018311
    825.2349500              0.0139501
    188.0469600              0.0684451
     52.9645000              0.2327143
     16.8975700              0.4701930
      5.7996353              0.3585209
SP   3   1.00
     15.5396160             -0.1107775              0.0708743
      3.5999336             -0.1480263              0.3397528
      1.0137618              1.1307670              0.7271586
SP   1   1.00
      0.2700058              1.0000000              1.0000000
D    1   1.00
      2.5840000              1.0000000
D    1   1.00
      0.6460000              1.0000000
F    1   1.00
      1.4000000              1.0000000
****
F     0
S    6   1.00
   7001.7130900              0.0018196169
   1051.3660900              0.0139160796
    239.2856900              0.0684053245
     67.3974453              0.233185760
     21.5199573              0.471267439
      7.40310130             0.356618546
SP   3   1.00
     20.8479528             -0.108506975            0.0716287243
      4.80830834            -0.146451658            0.3459121030
      1.34406986             1.128688580            0.7224699570
SP   1   1.00
      0.358151393            1.0000000              1.0000000
D    1   1.00
      3.5000000              1.0000000
D    1   1.00
      0.8750000              1.0000000
F    1   1.00
      1.8500000              1.0000000
****
Al     0
S    6   1.00
  13983.1000000              0.00194267
   2098.7500000              0.0148599
    477.7050000              0.0728494
    134.3600000              0.2468300
     42.8709000              0.4872580
     14.5189000              0.3234960
SP   6   1.00
    239.6680000             -0.00292619             0.00460285
     57.4419000             -0.0374080              0.0331990
     18.2859000             -0.1144870              0.1362820
      6.5991400              0.1156350              0.3304760
      2.4904900              0.6125950              0.4491460
      0.9445400              0.3937990              0.2657040
SP   3   1.00
      1.2779000             -0.2276060             -0.0175130
      0.3975900              0.00144583             0.2445330
      0.1600950              1.0927900              0.8049340
SP   1   1.00
      0.0556577              1.0000000              1.0000000
D    1   1.00
      0.6500000              1.0000000
D    1   1.00
      0.1625000              1.0000000
F    1   1.00
      0.2500000              1.0000000
****
Si     0
S    6   1.00
  16115.9000000              0.00195948
   2425.5800000              0.01492880
    553.8670000              0.07284780
    156.3400000              0.24613000
     50.0683000              0.48591400
     17.0178000              0.32500200
SP   6   1.00
    292.7180000             -0.00278094             0.00443826
     69.8731000             -0.03571460             0.03266790
     22.3363000             -0.11498500             0.13472100
      8.1503900              0.09356340             0.32867800
      3.1345800              0.60301700             0.44964000
      1.2254300              0.41895900             0.26137200
SP   3   1.00
      1.7273800             -0.24463000            -0.01779510
      0.5729220              0.00431572             0.25353900
      0.2221920              1.09818000             0.80066900
SP   1   1.00
      0.0778369              1.00000000             1.00000000
D    1   1.00
      0.9000000              1.0000000
D    1   1.00
      0.2250000              1.0000000
F    1   1.00
      0.3200000              1.0000000
****
P     0
S    6   1.00
  19413.3000000              0.0018516
   2909.4200000              0.0142062
    661.3640000              0.0699995
    185.7590000              0.2400790
     59.1943000              0.4847620
     20.0310000              0.3352000
SP   6   1.00
    339.4780000             -0.00278217             0.00456462
     81.0101000             -0.0360499              0.03369360
     25.8780000             -0.1166310              0.13975500
      9.4522100              0.0968328              0.33936200
      3.6656600              0.6144180              0.45092100
      1.4674600              0.4037980              0.23858600
SP   3   1.00
      2.1562300             -0.2529230             -0.01776530
      0.7489970              0.0328517              0.27405800
      0.2831450              1.0812500              0.78542100
SP   1   1.00
      0.0998317              1.0000000              1.00000000
D    1   1.00
      1.1000000              1.0000000
D    1   1.00
      0.2750000              1.0000000
F    1   1.00
      0.4500000              1.0000000
****
S     0
S    6   1.00
  21917.1000000              0.0018690
   3301.4900000              0.0142300
    754.1460000              0.0696960
    212.7110000              0.2384870
     67.9896000              0.4833070
     23.0515000              0.3380740
SP   6   1.00
    423.7350000             -0.0023767              0.0040610
    100.7100000             -0.0316930              0.0306810
     32.1599000             -0.1133170              0.1304520
     11.8079000              0.0560900              0.3272050
      4.6311000              0.5922550              0.4528510
      1.8702500              0.4550060              0.2560420
SP   3   1.00
      2.6158400             -0.2503740             -0.0145110
      0.9221670              0.0669570              0.3102630
      0.3412870              1.0545100              0.7544830
SP   1   1.00
      0.1171670              1.0000000              1.0000000
D    1   1.00
      1.3000000              1.0000000
D    1   1.00
      0.3250000              1.0000000
F    1   1.00
      0.5500000              1.0000000
****
Cl     0
S    6   1.00
  25180.1000000              0.0018330
   3780.3500000              0.0140340
    860.4740000              0.0690970
    242.1450000              0.2374520
     77.3349000              0.4830340
     26.2470000              0.3398560
SP   6   1.00
    491.7650000             -0.0022974              0.0039894
    116.9840000             -0.0307140              0.0303180
     37.4153000             -0.1125280              0.1298800
     13.7834000              0.0450160              0.3279510
      5.4521500              0.5893530              0.4535270
      2.2258800              0.4652060              0.2521540
SP   3   1.00
      3.1864900             -0.2518300             -0.0142990
      1.1442700              0.0615890              0.3235720
      0.4203770              1.0601800              0.7435070
SP   1   1.00
      0.1426570              1.0000000              1.0000000
D    1   1.00
      1.5000000              1.0000000
D    1   1.00
      0.3750000              1.0000000
F    1   1.00
      0.7000000              1.0000000
****
}

set {
reference uhf
freeze_core true
e_convergence 10
d_convergence 10
dft_spherical_points 1202
dft_radial_points 99
}

e = energy('b3lyp')

print_out('Grab this energy {0}'.format(e))
--------------------------------------------------------------------------

    Molecular point group: c1

    Geometry (in Bohr), charge = 0, multiplicity = 2:

       Center              X                  Y                   Z               Mass
    ------------   -----------------  -----------------  -----------------  -----------------
         C           -0.005496674231    -1.358451480393     0.000050361335    12.000000000000
         C           -0.019346452731     1.469471780307    -0.000187376365    12.000000000000
         H            1.928676274469    -2.117111610093     0.002789773135     1.007825032230
         H           -0.947351501531    -2.121311933093     1.671823103635     1.007825032230
         H           -0.942105300231    -2.120965378493    -1.673852263265     1.007825032230
         H            0.123683130569     2.518434705107    -1.748065654965     1.007825032230
         H            0.132900253369     2.519054525307     1.748936455935     1.007825032230

  Charge       = 0
  Multiplicity = 2
  Basis Set: ANONYMOUS7739BA71
    Blend: 6-31G_2DFP_
  Basis Set: (ANONYMOUS7739BA71 AUX)
    Blend: DEF2-UNIVERSAL-JKFIT

    Orbital Energies [Eh]
    ---------------------

    Alpha Occupied:

       1A    -10.180065     2A    -10.174776     3A     -0.750562
       4A     -0.605249     5A     -0.445508     6A     -0.410096
       7A     -0.384931     8A     -0.354413     9A     -0.197664

    Alpha Virtual:

      10A      0.099066    11A      0.127456    12A      0.141022
      13A      0.165560    14A      0.202987    15A      0.246134
      16A      0.429927    17A      0.440496    18A      0.446366
      19A      0.450318    20A      0.478465    21A      0.520722
      22A      0.543689    23A      0.573862    24A      0.593027
      25A      0.618691    26A      0.633516    27A      0.639382
      28A      0.649192    29A      0.741040    30A      0.821776
      31A      0.865686    32A      0.930056    33A      0.977310
      34A      1.023385    35A      1.071042    36A      1.082320
      37A      1.084525    38A      1.179698    39A      1.220298
      40A      1.253666    41A      1.323458    42A      1.342781
      43A      1.367118    44A      1.419299    45A      1.444540
      46A      1.508791    47A      1.522648    48A      1.602455
      49A      1.763098    50A      1.804828    51A      1.950729
      52A      2.049669    53A      2.098188    54A      2.697217
      55A      2.800261    56A      2.827954    57A      2.860246
      58A      2.928944    59A      2.962628    60A      2.986411
      61A      3.079954    62A      3.092667    63A      3.158713
      64A      3.169549    65A      3.199093    66A      3.300157
      67A      3.356591    68A      3.389708    69A      3.494979
      70A      3.498171    71A      3.580406    72A      3.593520
      73A      3.707669    74A      3.800291    75A      3.970838
      76A      4.021793    77A      4.087543    78A      4.126488
      79A      4.188256    80A      4.196948    81A      4.203556
      82A      4.288655    83A      4.367090    84A      4.486757
      85A      4.496416    86A      4.522217    87A      4.863871
      88A      4.923198    89A      5.146459    90A      5.164114
      91A      5.277002    92A      5.323679

    Beta Occupied:

       1A    -10.175595     2A    -10.166108     3A     -0.733959
       4A     -0.580574     5A     -0.439379     6A     -0.395603
       7A     -0.377010     8A     -0.349959

    Beta Virtual:

       9A     -0.036178    10A      0.101692    11A      0.138709
      12A      0.142639    13A      0.170355    14A      0.206596
      15A      0.251958    16A      0.441519    17A      0.445329
      18A      0.456026    19A      0.458679    20A      0.486990
      21A      0.548305    22A      0.587367    23A      0.592763
      24A      0.601865    25A      0.623983    26A      0.641373
      27A      0.645164    28A      0.656641    29A      0.766492
      30A      0.821564    31A      0.868685    32A      0.947783
      33A      0.988451    34A      1.031987    35A      1.078946
      36A      1.086559    37A      1.102306    38A      1.183333
      39A      1.228015    40A      1.266028    41A      1.330101
      42A      1.350299    43A      1.373361    44A      1.425223
      45A      1.451930    46A      1.513363    47A      1.534063
      48A      1.613347    49A      1.769570    50A      1.810947
      51A      1.955091    52A      2.059628    53A      2.103655
      54A      2.720397    55A      2.822119    56A      2.829882
      57A      2.876415    58A      2.931427    59A      2.989582
      60A      3.023130    61A      3.093217    62A      3.119877
      63A      3.176343    64A      3.209979    65A      3.218097
      66A      3.338912    67A      3.368979    68A      3.408726
      69A      3.519028    70A      3.537796    71A      3.596468
      72A      3.603483    73A      3.725909    74A      3.800579
      75A      3.981680    76A      4.031451    77A      4.093407
      78A      4.135868    79A      4.201394    80A      4.202812
      81A      4.212688    82A      4.296555    83A      4.371269
      84A      4.493689    85A      4.506971    86A      4.529485
      87A      4.865216    88A      4.927437    89A      5.149794
      90A      5.174981    91A      5.284038    92A      5.326176

    Final Occupation by Irrep:
              A
    DOCC [     8 ]
    SOCC [     1 ]

  @DF-UKS Final Energy:   -79.16615337175412

   => Energetics <=

    Nuclear Repulsion Energy =             36.8665514958742762
    One-Electron Energy =                -177.9488953871781405
    Two-Electron Energy =                  72.1950882905953080
    DFT Exchange-Correlation Energy =     -10.2788977710455534
    Empirical Dispersion Energy =           0.0000000000000000
    VV10 Nonlocal Energy =                  0.0000000000000000
    Total Energy =                        -79.1661533717541204

  UHF NO Occupations:
  HONO-2 :    7  A 1.9997300
  HONO-1 :    8  A 1.9987019
  HONO-0 :    9  A 1.0000000
  LUNO+0 :   10  A 0.0012981
  LUNO+1 :   11  A 0.0002700
  LUNO+2 :   12  A 0.0002477
  LUNO+3 :   13  A 0.0002231

Computation Completed

Properties will be evaluated at   0.000000,   0.000000,   0.000000 [a0]

Properties computed using the SCF density matrix

  Nuclear Dipole Moment: [e a0]
     X:     0.1467      Y:    -0.6558      Z:     0.0008

  Electronic Dipole Moment: [e a0]
     X:    -0.1043      Y:     0.5710      Z:    -0.0011

  Dipole Moment: [e a0]
     X:     0.0425      Y:    -0.0848      Z:    -0.0003     Total:     0.0948

  Dipole Moment: [D]
     X:     0.1079      Y:    -0.2156      Z:    -0.0008     Total:     0.2411

*** tstop() called on n044 at Fri Nov  5 19:11:50 2021
Module time:
	user time   =      61.69 seconds =       1.03 minutes
	system time =       0.46 seconds =       0.01 minutes
	total time  =         62 seconds =       1.03 minutes
Total time:
	user time   =      61.69 seconds =       1.03 minutes
	system time =       0.46 seconds =       0.01 minutes
	total time  =         62 seconds =       1.03 minutes
Grab this energy -79.16615337175412
    Psi4 stopped on: Friday, 05 November 2021 07:11PM
    Psi4 wall time for execution: 0:01:02.19

*** Psi4 exiting successfully. Buy a developer a beer!
