                               Psi4 1.4a2.dev629

  ==> Input File <==

--------------------------------------------------------------------------
import os
memory 14 GB

molecule {
 C   -0.0045197785   -1.3545444860    0.0000000000
 C   -0.0204115891    1.4603785618   -0.0000000000
 H    1.9292352050   -2.1195294516    0.0000000000
 H   -0.9425749310   -2.1112001693    1.6728152649
 H   -0.9425749310   -2.1112001693   -1.6728152649
 H    0.1259493005    2.5122027233   -1.7493477852
 H    0.1259493005    2.5122027233    1.7493477852
units bohr
0 2
}

basis {

assign 6-31g_2dfp_

[ 6-31g_2dfp_ ]

spherical

!----------------------------------------------------------------------
! Basis Set Exchange
! Version v0.8.13
! https://www.basissetexchange.org
!----------------------------------------------------------------------
!   Basis set: 6-31G(2df,p)
! Description: 6-31G(2df,p)
!        Role: orbital
!     Version: 0  (Data from the original Basis Set Exchange)
!----------------------------------------------------------------------

****
H     0
S    3   1.00
     18.7311370              0.03349460
      2.8253937              0.23472695
      0.6401217              0.81375733
S    1   1.00
      0.1612778              1.00000000
P    1   1.00
      1.5000000              1.0000000
P    1   1.00
      0.3750000              1.0000000
****
B     0
S    6   1.00
   2068.8823000              0.0018663
    310.6495700              0.0142515
     70.6830330              0.0695516
     19.8610800              0.2325729
      6.2993048              0.4670787
      2.1270270              0.3634314
SP   3   1.00
      4.7279710             -0.1303938              0.0745976
      1.1903377             -0.1307889              0.3078467
      0.3594117              1.1309444              0.7434568
SP   1   1.00
      0.1267512              1.0000000              1.0000000
D    1   1.00
      0.8020000              1.0000000
D    1   1.00
      0.2005000              1.0000000
F    1   1.00
      0.5000000              1.0000000
****
C     0
S    6   1.00
   3047.5249000              0.0018347
    457.3695100              0.0140373
    103.9486900              0.0688426
     29.2101550              0.2321844
      9.2866630              0.4679413
      3.1639270              0.3623120
SP   3   1.00
      7.8682724             -0.1193324              0.0689991
      1.8812885             -0.1608542              0.3164240
      0.5442493              1.1434564              0.7443083
SP   1   1.00
      0.1687144              1.0000000              1.0000000
D    1   1.00
      1.2520000              1.0000000
D    1   1.00
      0.3130000              1.0000000
F    1   1.00
      0.8000000              1.0000000
****
N     0
S    6   1.00
   4173.5110000              0.0018348
    627.4579000              0.0139950
    142.9021000              0.0685870
     40.2343300              0.2322410
     12.8202100              0.4690700
      4.3904370              0.3604550
SP   3   1.00
     11.6263580             -0.1149610              0.0675800
      2.7162800             -0.1691180              0.3239070
      0.7722180              1.1458520              0.7408950
SP   1   1.00
      0.2120313              1.0000000              1.0000000
D    1   1.00
      1.8260000              1.0000000
D    1   1.00
      0.4565000              1.0000000
F    1   1.00
      1.0000000              1.0000000
****
O     0
S    6   1.00
   5484.6717000              0.0018311
    825.2349500              0.0139501
    188.0469600              0.0684451
     52.9645000              0.2327143
     16.8975700              0.4701930
      5.7996353              0.3585209
SP   3   1.00
     15.5396160             -0.1107775              0.0708743
      3.5999336             -0.1480263              0.3397528
      1.0137618              1.1307670              0.7271586
SP   1   1.00
      0.2700058              1.0000000              1.0000000
D    1   1.00
      2.5840000              1.0000000
D    1   1.00
      0.6460000              1.0000000
F    1   1.00
      1.4000000              1.0000000
****
F     0
S    6   1.00
   7001.7130900              0.0018196169
   1051.3660900              0.0139160796
    239.2856900              0.0684053245
     67.3974453              0.233185760
     21.5199573              0.471267439
      7.40310130             0.356618546
SP   3   1.00
     20.8479528             -0.108506975            0.0716287243
      4.80830834            -0.146451658            0.3459121030
      1.34406986             1.128688580            0.7224699570
SP   1   1.00
      0.358151393            1.0000000              1.0000000
D    1   1.00
      3.5000000              1.0000000
D    1   1.00
      0.8750000              1.0000000
F    1   1.00
      1.8500000              1.0000000
****
Al     0
S    6   1.00
  13983.1000000              0.00194267
   2098.7500000              0.0148599
    477.7050000              0.0728494
    134.3600000              0.2468300
     42.8709000              0.4872580
     14.5189000              0.3234960
SP   6   1.00
    239.6680000             -0.00292619             0.00460285
     57.4419000             -0.0374080              0.0331990
     18.2859000             -0.1144870              0.1362820
      6.5991400              0.1156350              0.3304760
      2.4904900              0.6125950              0.4491460
      0.9445400              0.3937990              0.2657040
SP   3   1.00
      1.2779000             -0.2276060             -0.0175130
      0.3975900              0.00144583             0.2445330
      0.1600950              1.0927900              0.8049340
SP   1   1.00
      0.0556577              1.0000000              1.0000000
D    1   1.00
      0.6500000              1.0000000
D    1   1.00
      0.1625000              1.0000000
F    1   1.00
      0.2500000              1.0000000
****
Si     0
S    6   1.00
  16115.9000000              0.00195948
   2425.5800000              0.01492880
    553.8670000              0.07284780
    156.3400000              0.24613000
     50.0683000              0.48591400
     17.0178000              0.32500200
SP   6   1.00
    292.7180000             -0.00278094             0.00443826
     69.8731000             -0.03571460             0.03266790
     22.3363000             -0.11498500             0.13472100
      8.1503900              0.09356340             0.32867800
      3.1345800              0.60301700             0.44964000
      1.2254300              0.41895900             0.26137200
SP   3   1.00
      1.7273800             -0.24463000            -0.01779510
      0.5729220              0.00431572             0.25353900
      0.2221920              1.09818000             0.80066900
SP   1   1.00
      0.0778369              1.00000000             1.00000000
D    1   1.00
      0.9000000              1.0000000
D    1   1.00
      0.2250000              1.0000000
F    1   1.00
      0.3200000              1.0000000
****
P     0
S    6   1.00
  19413.3000000              0.0018516
   2909.4200000              0.0142062
    661.3640000              0.0699995
    185.7590000              0.2400790
     59.1943000              0.4847620
     20.0310000              0.3352000
SP   6   1.00
    339.4780000             -0.00278217             0.00456462
     81.0101000             -0.0360499              0.03369360
     25.8780000             -0.1166310              0.13975500
      9.4522100              0.0968328              0.33936200
      3.6656600              0.6144180              0.45092100
      1.4674600              0.4037980              0.23858600
SP   3   1.00
      2.1562300             -0.2529230             -0.01776530
      0.7489970              0.0328517              0.27405800
      0.2831450              1.0812500              0.78542100
SP   1   1.00
      0.0998317              1.0000000              1.00000000
D    1   1.00
      1.1000000              1.0000000
D    1   1.00
      0.2750000              1.0000000
F    1   1.00
      0.4500000              1.0000000
****
S     0
S    6   1.00
  21917.1000000              0.0018690
   3301.4900000              0.0142300
    754.1460000              0.0696960
    212.7110000              0.2384870
     67.9896000              0.4833070
     23.0515000              0.3380740
SP   6   1.00
    423.7350000             -0.0023767              0.0040610
    100.7100000             -0.0316930              0.0306810
     32.1599000             -0.1133170              0.1304520
     11.8079000              0.0560900              0.3272050
      4.6311000              0.5922550              0.4528510
      1.8702500              0.4550060              0.2560420
SP   3   1.00
      2.6158400             -0.2503740             -0.0145110
      0.9221670              0.0669570              0.3102630
      0.3412870              1.0545100              0.7544830
SP   1   1.00
      0.1171670              1.0000000              1.0000000
D    1   1.00
      1.3000000              1.0000000
D    1   1.00
      0.3250000              1.0000000
F    1   1.00
      0.5500000              1.0000000
****
Cl     0
S    6   1.00
  25180.1000000              0.0018330
   3780.3500000              0.0140340
    860.4740000              0.0690970
    242.1450000              0.2374520
     77.3349000              0.4830340
     26.2470000              0.3398560
SP   6   1.00
    491.7650000             -0.0022974              0.0039894
    116.9840000             -0.0307140              0.0303180
     37.4153000             -0.1125280              0.1298800
     13.7834000              0.0450160              0.3279510
      5.4521500              0.5893530              0.4535270
      2.2258800              0.4652060              0.2521540
SP   3   1.00
      3.1864900             -0.2518300             -0.0142990
      1.1442700              0.0615890              0.3235720
      0.4203770              1.0601800              0.7435070
SP   1   1.00
      0.1426570              1.0000000              1.0000000
D    1   1.00
      1.5000000              1.0000000
D    1   1.00
      0.3750000              1.0000000
F    1   1.00
      0.7000000              1.0000000
****
}

set {
reference uhf
freeze_core true
e_convergence 10
d_convergence 10
dft_spherical_points 1202
dft_radial_points 99
}

e = energy('b3lyp')

print_out('Grab this energy {0}'.format(e))
--------------------------------------------------------------------------

    Molecular point group: cs

    Geometry (in Bohr), charge = 0, multiplicity = 2:

       Center              X                  Y                   Z               Mass
    ------------   -----------------  -----------------  -----------------  -----------------
         C           -0.004489599103    -1.352553203407     0.000000000000    12.000000000000
         C           -0.020381409703     1.462369844393     0.000000000000    12.000000000000
         H            1.929265384397    -2.117538169007     0.000000000000     1.007825032230
         H           -0.942544751603    -2.109208886707     1.672815264900     1.007825032230
         H           -0.942544751603    -2.109208886707    -1.672815264900     1.007825032230
         H            0.125979479897     2.514194005893    -1.749347785200     1.007825032230
         H            0.125979479897     2.514194005893     1.749347785200     1.007825032230

  Charge       = 0
  Multiplicity = 2
  Basis Set: ANONYMOUS781FF487
    Blend: 6-31G_2DFP_
  Basis Set: (ANONYMOUS781FF487 AUX)
    Blend: DEF2-UNIVERSAL-JKFIT

    Orbital Energies [Eh]
    ---------------------

    Alpha Occupied:

       1Ap   -10.179584     2Ap   -10.174132     3Ap    -0.751975
       4Ap    -0.604644     1App   -0.446291     5Ap    -0.410528
       6Ap    -0.385744     2App   -0.353983     7Ap    -0.197200

    Alpha Virtual:

       8Ap     0.099009     9Ap     0.127706     3App    0.140830
      10Ap     0.165644     4App    0.203298    11Ap     0.248004
      12Ap     0.430577     5App    0.440842    13Ap     0.445694
       6App    0.449384    14Ap     0.479179    15Ap     0.521095
      16Ap     0.543289     7App    0.574280    17Ap     0.594881
       8App    0.618721    18Ap     0.633866    19Ap     0.639821
       9App    0.649849    20Ap     0.741272    10App    0.823038
      11App    0.865720    21Ap     0.930593    22Ap     0.978064
      12App    1.023433    13App    1.072313    23Ap     1.082797
      24Ap     1.086582    25Ap     1.179013    14App    1.219264
      26Ap     1.255246    15App    1.324166    27Ap     1.345429
      28Ap     1.367379    29Ap     1.419809    16App    1.446806
      17App    1.509237    30Ap     1.526246    31Ap     1.602584
      32Ap     1.762378    33Ap     1.807579    18App    1.952618
      19App    2.050628    34Ap     2.100696    35Ap     2.697986
      36Ap     2.803054    20App    2.829236    21App    2.860805
      22App    2.928399    37Ap     2.962508    38Ap     2.985961
      23App    3.079986    39Ap     3.092939    24App    3.156333
      40Ap     3.172426    25App    3.199102    26App    3.300612
      41Ap     3.360032    42Ap     3.389087    43Ap     3.493630
      27App    3.500144    28App    3.583351    44Ap     3.595977
      45Ap     3.712937    29App    3.807724    46Ap     3.974281
      47Ap     4.024697    48Ap     4.089694    49Ap     4.127800
      30App    4.187696    31App    4.197886    50Ap     4.204437
      51Ap     4.292978    32App    4.370014    33App    4.491894
      52Ap     4.500696    53Ap     4.532168    34App    4.862607
      54Ap     4.925343    35App    5.145841    55Ap     5.164011
      56Ap     5.278941    36App    5.330186

    Beta Occupied:

       1Ap   -10.174959     2Ap   -10.165647     3Ap    -0.735351
       4Ap    -0.580009     1App   -0.440205     5Ap    -0.395718
       6Ap    -0.377847     2App   -0.349466

    Beta Virtual:

       7Ap    -0.036102     8Ap     0.101691     9Ap     0.138858
       3App    0.142487    10Ap     0.170560     4App    0.206901
      11Ap     0.253716     5App    0.441935    12Ap     0.444906
       6App    0.455025    13Ap     0.458906    14Ap     0.488213
      15Ap     0.549070     7App    0.587845    16Ap     0.592039
      17Ap     0.603481     8App    0.623952    18Ap     0.641799
      19Ap     0.645502     9App    0.657278    20Ap     0.766686
      10App    0.822823    11App    0.868792    21Ap     0.948246
      22Ap     0.989376    12App    1.031995    13App    1.080336
      23Ap     1.087348    24Ap     1.104089    25Ap     1.182555
      14App    1.227013    26Ap     1.267729    15App    1.330801
      27Ap     1.352934    28Ap     1.373696    29Ap     1.425801
      16App    1.454209    17App    1.513803    30Ap     1.537699
      31Ap     1.613499    32Ap     1.769035    33Ap     1.813726
      18App    1.957076    19App    2.060569    34Ap     2.106251
      35Ap     2.721200    36Ap     2.824837    20App    2.831202
      21App    2.876707    22App    2.930955    37Ap     2.989383
      38Ap     3.022747    23App    3.093502    39Ap     3.120375
      24App    3.174022    40Ap     3.212509    25App    3.218107
      26App    3.339022    41Ap     3.371555    42Ap     3.408269
      27App    3.520466    43Ap     3.536912    28App    3.599960
      44Ap     3.606005    45Ap     3.731183    29App    3.808004
      46Ap     3.985104    47Ap     4.033450    48Ap     4.096163
      49Ap     4.137308    30App    4.202023    31App    4.202715
      50Ap     4.213902    51Ap     4.300868    32App    4.374292
      33App    4.498911    52Ap     4.511595    53Ap     4.539376
      34App    4.863948    54Ap     4.929718    35App    5.149163
      55Ap     5.174903    56Ap     5.286068    36App    5.332740

    Final Occupation by Irrep:
             Ap   App
    DOCC [     6,    2 ]
    SOCC [     1,    0 ]

  @DF-UKS Final Energy:   -79.16617860337330

   => Energetics <=

    Nuclear Repulsion Energy =             36.9482256542584437
    One-Electron Energy =                -178.1089140350899811
    Two-Electron Energy =                  72.2756898965669876
    DFT Exchange-Correlation Energy =     -10.2811801191087415
    Empirical Dispersion Energy =           0.0000000000000000
    VV10 Nonlocal Energy =                  0.0000000000000000
    Total Energy =                        -79.1661786033732966

  UHF NO Occupations:
  HONO-2 :    2App 1.9997297
  HONO-1 :    6 Ap 1.9987101
  HONO-0 :    7 Ap 1.0000000
  LUNO+0 :    8 Ap 0.0012899
  LUNO+1 :    3App 0.0002703
  LUNO+2 :    9 Ap 0.0002547
  LUNO+3 :   10 Ap 0.0002219

Computation Completed

Properties will be evaluated at   0.000000,   0.000000,   0.000000 [a0]

Properties computed using the SCF density matrix

  Nuclear Dipole Moment: [e a0]
     X:     0.1469      Y:    -0.6487      Z:     0.0000

  Electronic Dipole Moment: [e a0]
     X:    -0.1053      Y:     0.5630      Z:     0.0000

  Dipole Moment: [e a0]
     X:     0.0416      Y:    -0.0857      Z:     0.0000     Total:     0.0952

  Dipole Moment: [D]
     X:     0.1057      Y:    -0.2178      Z:     0.0000     Total:     0.2421

*** tstop() called on n033 at Fri Nov  5 18:59:53 2021
Module time:
	user time   =      65.07 seconds =       1.08 minutes
	system time =       0.46 seconds =       0.01 minutes
	total time  =         65 seconds =       1.08 minutes
Total time:
	user time   =      65.07 seconds =       1.08 minutes
	system time =       0.46 seconds =       0.01 minutes
	total time  =         65 seconds =       1.08 minutes
Grab this energy -79.1661786033733
    Psi4 stopped on: Friday, 05 November 2021 06:59PM
    Psi4 wall time for execution: 0:01:05.57

*** Psi4 exiting successfully. Buy a developer a beer!
