                               Psi4 1.4a2.dev629

  ==> Input File <==

--------------------------------------------------------------------------
import os
memory 14 GB

molecule {
 C   -0.0055050842   -1.3546203673    0.0009592817
 C   -0.0194589650    1.4605290316   -0.0009561400
 H    1.9283365805   -2.1111345936    0.0022651220
 H   -0.9444006456   -2.1217804550    1.6742492835
 H   -0.9445075775   -2.1092505761   -1.6704962553
 H    0.1283267457    2.5150239589   -1.7528663010
 H    0.1282615224    2.5095427338    1.7468450091
units bohr
0 2
}

basis {

assign 6-31g_2dfp_

[ 6-31g_2dfp_ ]

spherical

!----------------------------------------------------------------------
! Basis Set Exchange
! Version v0.8.13
! https://www.basissetexchange.org
!----------------------------------------------------------------------
!   Basis set: 6-31G(2df,p)
! Description: 6-31G(2df,p)
!        Role: orbital
!     Version: 0  (Data from the original Basis Set Exchange)
!----------------------------------------------------------------------

****
H     0
S    3   1.00
     18.7311370              0.03349460
      2.8253937              0.23472695
      0.6401217              0.81375733
S    1   1.00
      0.1612778              1.00000000
P    1   1.00
      1.5000000              1.0000000
P    1   1.00
      0.3750000              1.0000000
****
B     0
S    6   1.00
   2068.8823000              0.0018663
    310.6495700              0.0142515
     70.6830330              0.0695516
     19.8610800              0.2325729
      6.2993048              0.4670787
      2.1270270              0.3634314
SP   3   1.00
      4.7279710             -0.1303938              0.0745976
      1.1903377             -0.1307889              0.3078467
      0.3594117              1.1309444              0.7434568
SP   1   1.00
      0.1267512              1.0000000              1.0000000
D    1   1.00
      0.8020000              1.0000000
D    1   1.00
      0.2005000              1.0000000
F    1   1.00
      0.5000000              1.0000000
****
C     0
S    6   1.00
   3047.5249000              0.0018347
    457.3695100              0.0140373
    103.9486900              0.0688426
     29.2101550              0.2321844
      9.2866630              0.4679413
      3.1639270              0.3623120
SP   3   1.00
      7.8682724             -0.1193324              0.0689991
      1.8812885             -0.1608542              0.3164240
      0.5442493              1.1434564              0.7443083
SP   1   1.00
      0.1687144              1.0000000              1.0000000
D    1   1.00
      1.2520000              1.0000000
D    1   1.00
      0.3130000              1.0000000
F    1   1.00
      0.8000000              1.0000000
****
N     0
S    6   1.00
   4173.5110000              0.0018348
    627.4579000              0.0139950
    142.9021000              0.0685870
     40.2343300              0.2322410
     12.8202100              0.4690700
      4.3904370              0.3604550
SP   3   1.00
     11.6263580             -0.1149610              0.0675800
      2.7162800             -0.1691180              0.3239070
      0.7722180              1.1458520              0.7408950
SP   1   1.00
      0.2120313              1.0000000              1.0000000
D    1   1.00
      1.8260000              1.0000000
D    1   1.00
      0.4565000              1.0000000
F    1   1.00
      1.0000000              1.0000000
****
O     0
S    6   1.00
   5484.6717000              0.0018311
    825.2349500              0.0139501
    188.0469600              0.0684451
     52.9645000              0.2327143
     16.8975700              0.4701930
      5.7996353              0.3585209
SP   3   1.00
     15.5396160             -0.1107775              0.0708743
      3.5999336             -0.1480263              0.3397528
      1.0137618              1.1307670              0.7271586
SP   1   1.00
      0.2700058              1.0000000              1.0000000
D    1   1.00
      2.5840000              1.0000000
D    1   1.00
      0.6460000              1.0000000
F    1   1.00
      1.4000000              1.0000000
****
F     0
S    6   1.00
   7001.7130900              0.0018196169
   1051.3660900              0.0139160796
    239.2856900              0.0684053245
     67.3974453              0.233185760
     21.5199573              0.471267439
      7.40310130             0.356618546
SP   3   1.00
     20.8479528             -0.108506975            0.0716287243
      4.80830834            -0.146451658            0.3459121030
      1.34406986             1.128688580            0.7224699570
SP   1   1.00
      0.358151393            1.0000000              1.0000000
D    1   1.00
      3.5000000              1.0000000
D    1   1.00
      0.8750000              1.0000000
F    1   1.00
      1.8500000              1.0000000
****
Al     0
S    6   1.00
  13983.1000000              0.00194267
   2098.7500000              0.0148599
    477.7050000              0.0728494
    134.3600000              0.2468300
     42.8709000              0.4872580
     14.5189000              0.3234960
SP   6   1.00
    239.6680000             -0.00292619             0.00460285
     57.4419000             -0.0374080              0.0331990
     18.2859000             -0.1144870              0.1362820
      6.5991400              0.1156350              0.3304760
      2.4904900              0.6125950              0.4491460
      0.9445400              0.3937990              0.2657040
SP   3   1.00
      1.2779000             -0.2276060             -0.0175130
      0.3975900              0.00144583             0.2445330
      0.1600950              1.0927900              0.8049340
SP   1   1.00
      0.0556577              1.0000000              1.0000000
D    1   1.00
      0.6500000              1.0000000
D    1   1.00
      0.1625000              1.0000000
F    1   1.00
      0.2500000              1.0000000
****
Si     0
S    6   1.00
  16115.9000000              0.00195948
   2425.5800000              0.01492880
    553.8670000              0.07284780
    156.3400000              0.24613000
     50.0683000              0.48591400
     17.0178000              0.32500200
SP   6   1.00
    292.7180000             -0.00278094             0.00443826
     69.8731000             -0.03571460             0.03266790
     22.3363000             -0.11498500             0.13472100
      8.1503900              0.09356340             0.32867800
      3.1345800              0.60301700             0.44964000
      1.2254300              0.41895900             0.26137200
SP   3   1.00
      1.7273800             -0.24463000            -0.01779510
      0.5729220              0.00431572             0.25353900
      0.2221920              1.09818000             0.80066900
SP   1   1.00
      0.0778369              1.00000000             1.00000000
D    1   1.00
      0.9000000              1.0000000
D    1   1.00
      0.2250000              1.0000000
F    1   1.00
      0.3200000              1.0000000
****
P     0
S    6   1.00
  19413.3000000              0.0018516
   2909.4200000              0.0142062
    661.3640000              0.0699995
    185.7590000              0.2400790
     59.1943000              0.4847620
     20.0310000              0.3352000
SP   6   1.00
    339.4780000             -0.00278217             0.00456462
     81.0101000             -0.0360499              0.03369360
     25.8780000             -0.1166310              0.13975500
      9.4522100              0.0968328              0.33936200
      3.6656600              0.6144180              0.45092100
      1.4674600              0.4037980              0.23858600
SP   3   1.00
      2.1562300             -0.2529230             -0.01776530
      0.7489970              0.0328517              0.27405800
      0.2831450              1.0812500              0.78542100
SP   1   1.00
      0.0998317              1.0000000              1.00000000
D    1   1.00
      1.1000000              1.0000000
D    1   1.00
      0.2750000              1.0000000
F    1   1.00
      0.4500000              1.0000000
****
S     0
S    6   1.00
  21917.1000000              0.0018690
   3301.4900000              0.0142300
    754.1460000              0.0696960
    212.7110000              0.2384870
     67.9896000              0.4833070
     23.0515000              0.3380740
SP   6   1.00
    423.7350000             -0.0023767              0.0040610
    100.7100000             -0.0316930              0.0306810
     32.1599000             -0.1133170              0.1304520
     11.8079000              0.0560900              0.3272050
      4.6311000              0.5922550              0.4528510
      1.8702500              0.4550060              0.2560420
SP   3   1.00
      2.6158400             -0.2503740             -0.0145110
      0.9221670              0.0669570              0.3102630
      0.3412870              1.0545100              0.7544830
SP   1   1.00
      0.1171670              1.0000000              1.0000000
D    1   1.00
      1.3000000              1.0000000
D    1   1.00
      0.3250000              1.0000000
F    1   1.00
      0.5500000              1.0000000
****
Cl     0
S    6   1.00
  25180.1000000              0.0018330
   3780.3500000              0.0140340
    860.4740000              0.0690970
    242.1450000              0.2374520
     77.3349000              0.4830340
     26.2470000              0.3398560
SP   6   1.00
    491.7650000             -0.0022974              0.0039894
    116.9840000             -0.0307140              0.0303180
     37.4153000             -0.1125280              0.1298800
     13.7834000              0.0450160              0.3279510
      5.4521500              0.5893530              0.4535270
      2.2258800              0.4652060              0.2521540
SP   3   1.00
      3.1864900             -0.2518300             -0.0142990
      1.1442700              0.0615890              0.3235720
      0.4203770              1.0601800              0.7435070
SP   1   1.00
      0.1426570              1.0000000              1.0000000
D    1   1.00
      1.5000000              1.0000000
D    1   1.00
      0.3750000              1.0000000
F    1   1.00
      0.7000000              1.0000000
****
}

set {
reference uhf
freeze_core true
e_convergence 10
d_convergence 10
dft_spherical_points 1202
dft_radial_points 99
}

e = energy('b3lyp')

print_out('Grab this energy {0}'.format(e))
--------------------------------------------------------------------------

    Molecular point group: c1

    Geometry (in Bohr), charge = 0, multiplicity = 2:

       Center              X                  Y                   Z               Mass
    ------------   -----------------  -----------------  -----------------  -----------------
         C           -0.005462533839    -1.352657318682     0.000958092473    12.000000000000
         C           -0.019416414639     1.462492080218    -0.000957329227    12.000000000000
         H            1.928379130861    -2.109171544982     0.002263932773     1.007825032230
         H           -0.944358095239    -2.119817406382     1.674248094273     1.007825032230
         H           -0.944465027139    -2.107287527482    -1.670497444527     1.007825032230
         H            0.128369296061     2.516987007518    -1.752867490227     1.007825032230
         H            0.128304072761     2.511505782418     1.746843819873     1.007825032230

  Charge       = 0
  Multiplicity = 2
  Basis Set: ANONYMOUSF1774AA0
    Blend: 6-31G_2DFP_
  Basis Set: (ANONYMOUSF1774AA0 AUX)
    Blend: DEF2-UNIVERSAL-JKFIT

    Orbital Energies [Eh]
    ---------------------

    Alpha Occupied:

       1A    -10.179616     2A    -10.174162     3A     -0.751940
       4A     -0.604599     5A     -0.446015     6A     -0.410874
       7A     -0.385787     8A     -0.353758     9A     -0.197161

    Alpha Virtual:

      10A      0.099007    11A      0.127718    12A      0.140605
      13A      0.165651    14A      0.203203    15A      0.247985
      16A      0.430579    17A      0.440854    18A      0.445643
      19A      0.449751    20A      0.478836    21A      0.521090
      22A      0.543596    23A      0.574358    24A      0.594751
      25A      0.618412    26A      0.633945    27A      0.639726
      28A      0.649511    29A      0.741130    30A      0.822670
      31A      0.865732    32A      0.931440    33A      0.977426
      34A      1.024235    35A      1.071849    36A      1.082926
      37A      1.086139    38A      1.179688    39A      1.219240
      40A      1.253932    41A      1.323701    42A      1.346093
      43A      1.367723    44A      1.420636    45A      1.446008
      46A      1.509009    47A      1.526035    48A      1.602196
      49A      1.763052    50A      1.806710    51A      1.952088
      52A      2.050137    53A      2.101086    54A      2.698815
      55A      2.802535    56A      2.828835    57A      2.860646
      58A      2.928476    59A      2.962353    60A      2.985976
      61A      3.079922    62A      3.093966    63A      3.157011
      64A      3.171696    65A      3.199164    66A      3.300626
      67A      3.358057    68A      3.390347    69A      3.493501
      70A      3.499856    71A      3.582412    72A      3.595289
      73A      3.712871    74A      3.806840    75A      3.975228
      76A      4.025031    77A      4.089075    78A      4.128234
      79A      4.187784    80A      4.197559    81A      4.205033
      82A      4.292885    83A      4.369628    84A      4.490274
      85A      4.502890    86A      4.530153    87A      4.861926
      88A      4.925389    89A      5.144526    90A      5.164475
      91A      5.278971    92A      5.328954

    Beta Occupied:

       1A    -10.174985     2A    -10.165674     3A     -0.735314
       4A     -0.579948     5A     -0.439915     6A     -0.396125
       7A     -0.377861     8A     -0.349264

    Beta Virtual:

       9A     -0.035985    10A      0.101686    11A      0.138840
      12A      0.142300    13A      0.170505    14A      0.206814
      15A      0.253708    16A      0.441923    17A      0.444822
      18A      0.455414    19A      0.458949    20A      0.487793
      21A      0.549347    22A      0.587776    23A      0.592152
      24A      0.603419    25A      0.623698    26A      0.641820
      27A      0.645403    28A      0.656952    29A      0.766532
      30A      0.822459    31A      0.868786    32A      0.949054
      33A      0.988681    34A      1.032923    35A      1.079746
      36A      1.087564    37A      1.103611    38A      1.183315
      39A      1.226974    40A      1.266352    41A      1.330234
      42A      1.353624    43A      1.374072    44A      1.426644
      45A      1.453470    46A      1.513571    47A      1.537491
      48A      1.613056    49A      1.769652    50A      1.812889
      51A      1.956540    52A      2.060092    53A      2.106636
      54A      2.722055    55A      2.824220    56A      2.830878
      57A      2.876616    58A      2.931040    59A      2.989405
      60A      3.022585    61A      3.093452    62A      3.121243
      63A      3.174760    64A      3.211717    65A      3.218323
      66A      3.339044    67A      3.370478    68A      3.408862
      69A      3.519603    70A      3.536660    71A      3.599369
      72A      3.605445    73A      3.731081    74A      3.807170
      75A      3.985546    76A      4.034359    77A      4.095567
      78A      4.137722    79A      4.202080    80A      4.202364
      81A      4.214443    82A      4.300843    83A      4.373920
      84A      4.497260    85A      4.513701    86A      4.537324
      87A      4.863276    88A      4.929712    89A      5.147973
      90A      5.175250    91A      5.286119    92A      5.331505

    Final Occupation by Irrep:
              A
    DOCC [     8 ]
    SOCC [     1 ]

  @DF-UKS Final Energy:   -79.16617083020478

   => Energetics <=

    Nuclear Repulsion Energy =             36.9446708705291726
    One-Electron Energy =                -178.1022292609954434
    Two-Electron Energy =                  72.2723454310314537
    DFT Exchange-Correlation Energy =     -10.2809578707699547
    Empirical Dispersion Energy =           0.0000000000000000
    VV10 Nonlocal Energy =                  0.0000000000000000
    Total Energy =                        -79.1661708302047771

  UHF NO Occupations:
  HONO-2 :    7  A 1.9997293
  HONO-1 :    8  A 1.9987083
  HONO-0 :    9  A 1.0000000
  LUNO+0 :   10  A 0.0012917
  LUNO+1 :   11  A 0.0002707
  LUNO+2 :   12  A 0.0002523
  LUNO+3 :   13  A 0.0002213

Computation Completed

Properties will be evaluated at   0.000000,   0.000000,   0.000000 [a0]

Properties computed using the SCF density matrix

  Nuclear Dipole Moment: [e a0]
     X:     0.1470      Y:    -0.6488      Z:    -0.0000

  Electronic Dipole Moment: [e a0]
     X:    -0.1045      Y:     0.5628      Z:    -0.0003

  Dipole Moment: [e a0]
     X:     0.0424      Y:    -0.0859      Z:    -0.0003     Total:     0.0958

  Dipole Moment: [D]
     X:     0.1078      Y:    -0.2184      Z:    -0.0006     Total:     0.2436

*** tstop() called on n045 at Fri Nov  5 18:58:05 2021
Module time:
	user time   =      61.23 seconds =       1.02 minutes
	system time =       0.44 seconds =       0.01 minutes
	total time  =         62 seconds =       1.03 minutes
Total time:
	user time   =      61.23 seconds =       1.02 minutes
	system time =       0.44 seconds =       0.01 minutes
	total time  =         62 seconds =       1.03 minutes
Grab this energy -79.16617083020478
    Psi4 stopped on: Friday, 05 November 2021 06:58PM
    Psi4 wall time for execution: 0:01:01.72

*** Psi4 exiting successfully. Buy a developer a beer!
