                               Psi4 1.4a2.dev629

  ==> Input File <==

--------------------------------------------------------------------------
import os
memory 14 GB

molecule {
 C   -0.0044967356   -1.3554645977    0.0000000000
 C   -0.0203399561    1.4652395840   -0.0000000000
 H    1.9236405363   -2.1199916973    0.0000000000
 H   -0.9397694518   -2.1117420572    1.6678485925
 H   -0.9397694518   -2.1117420572   -1.6678485925
 H    0.1258938177    2.5110052788   -1.7494998534
 H    0.1258938177    2.5110052788    1.7494998534
units bohr
0 2
}

basis {

assign 6-31g_2dfp_

[ 6-31g_2dfp_ ]

spherical

!----------------------------------------------------------------------
! Basis Set Exchange
! Version v0.8.13
! https://www.basissetexchange.org
!----------------------------------------------------------------------
!   Basis set: 6-31G(2df,p)
! Description: 6-31G(2df,p)
!        Role: orbital
!     Version: 0  (Data from the original Basis Set Exchange)
!----------------------------------------------------------------------

****
H     0
S    3   1.00
     18.7311370              0.03349460
      2.8253937              0.23472695
      0.6401217              0.81375733
S    1   1.00
      0.1612778              1.00000000
P    1   1.00
      1.5000000              1.0000000
P    1   1.00
      0.3750000              1.0000000
****
B     0
S    6   1.00
   2068.8823000              0.0018663
    310.6495700              0.0142515
     70.6830330              0.0695516
     19.8610800              0.2325729
      6.2993048              0.4670787
      2.1270270              0.3634314
SP   3   1.00
      4.7279710             -0.1303938              0.0745976
      1.1903377             -0.1307889              0.3078467
      0.3594117              1.1309444              0.7434568
SP   1   1.00
      0.1267512              1.0000000              1.0000000
D    1   1.00
      0.8020000              1.0000000
D    1   1.00
      0.2005000              1.0000000
F    1   1.00
      0.5000000              1.0000000
****
C     0
S    6   1.00
   3047.5249000              0.0018347
    457.3695100              0.0140373
    103.9486900              0.0688426
     29.2101550              0.2321844
      9.2866630              0.4679413
      3.1639270              0.3623120
SP   3   1.00
      7.8682724             -0.1193324              0.0689991
      1.8812885             -0.1608542              0.3164240
      0.5442493              1.1434564              0.7443083
SP   1   1.00
      0.1687144              1.0000000              1.0000000
D    1   1.00
      1.2520000              1.0000000
D    1   1.00
      0.3130000              1.0000000
F    1   1.00
      0.8000000              1.0000000
****
N     0
S    6   1.00
   4173.5110000              0.0018348
    627.4579000              0.0139950
    142.9021000              0.0685870
     40.2343300              0.2322410
     12.8202100              0.4690700
      4.3904370              0.3604550
SP   3   1.00
     11.6263580             -0.1149610              0.0675800
      2.7162800             -0.1691180              0.3239070
      0.7722180              1.1458520              0.7408950
SP   1   1.00
      0.2120313              1.0000000              1.0000000
D    1   1.00
      1.8260000              1.0000000
D    1   1.00
      0.4565000              1.0000000
F    1   1.00
      1.0000000              1.0000000
****
O     0
S    6   1.00
   5484.6717000              0.0018311
    825.2349500              0.0139501
    188.0469600              0.0684451
     52.9645000              0.2327143
     16.8975700              0.4701930
      5.7996353              0.3585209
SP   3   1.00
     15.5396160             -0.1107775              0.0708743
      3.5999336             -0.1480263              0.3397528
      1.0137618              1.1307670              0.7271586
SP   1   1.00
      0.2700058              1.0000000              1.0000000
D    1   1.00
      2.5840000              1.0000000
D    1   1.00
      0.6460000              1.0000000
F    1   1.00
      1.4000000              1.0000000
****
F     0
S    6   1.00
   7001.7130900              0.0018196169
   1051.3660900              0.0139160796
    239.2856900              0.0684053245
     67.3974453              0.233185760
     21.5199573              0.471267439
      7.40310130             0.356618546
SP   3   1.00
     20.8479528             -0.108506975            0.0716287243
      4.80830834            -0.146451658            0.3459121030
      1.34406986             1.128688580            0.7224699570
SP   1   1.00
      0.358151393            1.0000000              1.0000000
D    1   1.00
      3.5000000              1.0000000
D    1   1.00
      0.8750000              1.0000000
F    1   1.00
      1.8500000              1.0000000
****
Al     0
S    6   1.00
  13983.1000000              0.00194267
   2098.7500000              0.0148599
    477.7050000              0.0728494
    134.3600000              0.2468300
     42.8709000              0.4872580
     14.5189000              0.3234960
SP   6   1.00
    239.6680000             -0.00292619             0.00460285
     57.4419000             -0.0374080              0.0331990
     18.2859000             -0.1144870              0.1362820
      6.5991400              0.1156350              0.3304760
      2.4904900              0.6125950              0.4491460
      0.9445400              0.3937990              0.2657040
SP   3   1.00
      1.2779000             -0.2276060             -0.0175130
      0.3975900              0.00144583             0.2445330
      0.1600950              1.0927900              0.8049340
SP   1   1.00
      0.0556577              1.0000000              1.0000000
D    1   1.00
      0.6500000              1.0000000
D    1   1.00
      0.1625000              1.0000000
F    1   1.00
      0.2500000              1.0000000
****
Si     0
S    6   1.00
  16115.9000000              0.00195948
   2425.5800000              0.01492880
    553.8670000              0.07284780
    156.3400000              0.24613000
     50.0683000              0.48591400
     17.0178000              0.32500200
SP   6   1.00
    292.7180000             -0.00278094             0.00443826
     69.8731000             -0.03571460             0.03266790
     22.3363000             -0.11498500             0.13472100
      8.1503900              0.09356340             0.32867800
      3.1345800              0.60301700             0.44964000
      1.2254300              0.41895900             0.26137200
SP   3   1.00
      1.7273800             -0.24463000            -0.01779510
      0.5729220              0.00431572             0.25353900
      0.2221920              1.09818000             0.80066900
SP   1   1.00
      0.0778369              1.00000000             1.00000000
D    1   1.00
      0.9000000              1.0000000
D    1   1.00
      0.2250000              1.0000000
F    1   1.00
      0.3200000              1.0000000
****
P     0
S    6   1.00
  19413.3000000              0.0018516
   2909.4200000              0.0142062
    661.3640000              0.0699995
    185.7590000              0.2400790
     59.1943000              0.4847620
     20.0310000              0.3352000
SP   6   1.00
    339.4780000             -0.00278217             0.00456462
     81.0101000             -0.0360499              0.03369360
     25.8780000             -0.1166310              0.13975500
      9.4522100              0.0968328              0.33936200
      3.6656600              0.6144180              0.45092100
      1.4674600              0.4037980              0.23858600
SP   3   1.00
      2.1562300             -0.2529230             -0.01776530
      0.7489970              0.0328517              0.27405800
      0.2831450              1.0812500              0.78542100
SP   1   1.00
      0.0998317              1.0000000              1.00000000
D    1   1.00
      1.1000000              1.0000000
D    1   1.00
      0.2750000              1.0000000
F    1   1.00
      0.4500000              1.0000000
****
S     0
S    6   1.00
  21917.1000000              0.0018690
   3301.4900000              0.0142300
    754.1460000              0.0696960
    212.7110000              0.2384870
     67.9896000              0.4833070
     23.0515000              0.3380740
SP   6   1.00
    423.7350000             -0.0023767              0.0040610
    100.7100000             -0.0316930              0.0306810
     32.1599000             -0.1133170              0.1304520
     11.8079000              0.0560900              0.3272050
      4.6311000              0.5922550              0.4528510
      1.8702500              0.4550060              0.2560420
SP   3   1.00
      2.6158400             -0.2503740             -0.0145110
      0.9221670              0.0669570              0.3102630
      0.3412870              1.0545100              0.7544830
SP   1   1.00
      0.1171670              1.0000000              1.0000000
D    1   1.00
      1.3000000              1.0000000
D    1   1.00
      0.3250000              1.0000000
F    1   1.00
      0.5500000              1.0000000
****
Cl     0
S    6   1.00
  25180.1000000              0.0018330
   3780.3500000              0.0140340
    860.4740000              0.0690970
    242.1450000              0.2374520
     77.3349000              0.4830340
     26.2470000              0.3398560
SP   6   1.00
    491.7650000             -0.0022974              0.0039894
    116.9840000             -0.0307140              0.0303180
     37.4153000             -0.1125280              0.1298800
     13.7834000              0.0450160              0.3279510
      5.4521500              0.5893530              0.4535270
      2.2258800              0.4652060              0.2521540
SP   3   1.00
      3.1864900             -0.2518300             -0.0142990
      1.1442700              0.0615890              0.3235720
      0.4203770              1.0601800              0.7435070
SP   1   1.00
      0.1426570              1.0000000              1.0000000
D    1   1.00
      1.5000000              1.0000000
D    1   1.00
      0.3750000              1.0000000
F    1   1.00
      0.7000000              1.0000000
****
}

set {
reference uhf
freeze_core true
e_convergence 10
d_convergence 10
dft_spherical_points 1202
dft_radial_points 99
}

e = energy('b3lyp')

print_out('Grab this energy {0}'.format(e))
--------------------------------------------------------------------------

    Molecular point group: cs

    Geometry (in Bohr), charge = 0, multiplicity = 2:

       Center              X                  Y                   Z               Mass
    ------------   -----------------  -----------------  -----------------  -----------------
         C           -0.004502393854    -1.354965067269     0.000000000000    12.000000000000
         C           -0.020345614354     1.465739114431     0.000000000000    12.000000000000
         H            1.923634878046    -2.119492166869     0.000000000000     1.007825032230
         H           -0.939775110054    -2.111242526769     1.667848592500     1.007825032230
         H           -0.939775110054    -2.111242526769    -1.667848592500     1.007825032230
         H            0.125888159446     2.511504809231    -1.749499853400     1.007825032230
         H            0.125888159446     2.511504809231     1.749499853400     1.007825032230

  Charge       = 0
  Multiplicity = 2
  Basis Set: ANONYMOUS8BA5908E
    Blend: 6-31G_2DFP_
  Basis Set: (ANONYMOUS8BA5908E AUX)
    Blend: DEF2-UNIVERSAL-JKFIT

    Orbital Energies [Eh]
    ---------------------

    Alpha Occupied:

       1Ap   -10.179519     2Ap   -10.173324     3Ap    -0.751746
       4Ap    -0.605437     1App   -0.446590     5Ap    -0.410572
       6Ap    -0.385199     2App   -0.354752     7Ap    -0.197409

    Alpha Virtual:

       8Ap     0.099374     9Ap     0.128029     3App    0.141822
      10Ap     0.166416     4App    0.203511    11Ap     0.247178
      12Ap     0.430400     5App    0.440549    13Ap     0.446447
       6App    0.449960    14Ap     0.479125    15Ap     0.521168
      16Ap     0.543797     7App    0.574446    17Ap     0.594805
       8App    0.619700    18Ap     0.634605    19Ap     0.640897
       9App    0.650711    20Ap     0.741591    10App    0.823274
      11App    0.867425    21Ap     0.930881    22Ap     0.977922
      12App    1.024261    13App    1.072188    23Ap     1.083973
      24Ap     1.086352    25Ap     1.179899    14App    1.220891
      26Ap     1.255694    15App    1.324748    27Ap     1.344141
      28Ap     1.368677    29Ap     1.420726    16App    1.448152
      17App    1.510528    30Ap     1.524982    31Ap     1.603466
      32Ap     1.766031    33Ap     1.810938    18App    1.955255
      19App    2.050457    34Ap     2.103393    35Ap     2.698264
      36Ap     2.802312    20App    2.829681    21App    2.862305
      22App    2.929888    37Ap     2.963888    38Ap     2.986878
      23App    3.079942    39Ap     3.092833    24App    3.158563
      40Ap     3.171207    25App    3.198689    26App    3.300509
      41Ap     3.359865    42Ap     3.386732    43Ap     3.494551
      27App    3.499249    28App    3.580614    44Ap     3.597179
      45Ap     3.713101    29App    3.808018    46Ap     3.974753
      47Ap     4.023455    48Ap     4.092101    49Ap     4.128840
      30App    4.189447    31App    4.204513    50Ap     4.209449
      51Ap     4.294337    32App    4.372906    33App    4.495182
      52Ap     4.501680    53Ap     4.531877    34App    4.867166
      54Ap     4.926839    35App    5.147400    55Ap     5.169118
      56Ap     5.286753    36App    5.337063

    Beta Occupied:

       1Ap   -10.174141     2Ap   -10.165576     3Ap    -0.735202
       4Ap    -0.580704     1App   -0.440490     5Ap    -0.395923
       6Ap    -0.377291     2App   -0.350253

    Beta Virtual:

       7Ap    -0.036087     8Ap     0.102071     9Ap     0.139160
       3App    0.143469    10Ap     0.171251     4App    0.207085
      11Ap     0.252920     5App    0.441619    12Ap     0.445277
       6App    0.455628    13Ap     0.459297    14Ap     0.487936
      15Ap     0.549283     7App    0.588197    16Ap     0.592483
      17Ap     0.603528     8App    0.624809    18Ap     0.642484
      19Ap     0.646552     9App    0.658094    20Ap     0.767004
      10App    0.823028    11App    0.870456    21Ap     0.948538
      22Ap     0.989201    12App    1.032808    13App    1.080229
      23Ap     1.089407    24Ap     1.102966    25Ap     1.183429
      14App    1.228644    26Ap     1.268080    15App    1.331433
      27Ap     1.351570    28Ap     1.374992    29Ap     1.426648
      16App    1.455539    17App    1.515110    30Ap     1.536274
      31Ap     1.614645    32Ap     1.772688    33Ap     1.816956
      18App    1.959670    19App    2.060380    34Ap     2.108907
      35Ap     2.721495    36Ap     2.824187    20App    2.831743
      21App    2.878285    22App    2.932428    37Ap     2.991086
      38Ap     3.023379    23App    3.093195    39Ap     3.120065
      24App    3.176417    40Ap     3.211385    25App    3.217518
      26App    3.339125    41Ap     3.370815    42Ap     3.406715
      27App    3.519439    43Ap     3.537928    28App    3.597371
      44Ap     3.607215    45Ap     3.731304    29App    3.808252
      46Ap     3.985666    47Ap     4.032136    48Ap     4.098639
      49Ap     4.138416    30App    4.203764    31App    4.209428
      50Ap     4.218509    51Ap     4.302318    32App    4.377093
      33App    4.502086    52Ap     4.512245    53Ap     4.539247
      34App    4.868497    54Ap     4.931169    35App    5.150731
      55Ap     5.180009    56Ap     5.293781    36App    5.339579

    Final Occupation by Irrep:
             Ap   App
    DOCC [     6,    2 ]
    SOCC [     1,    0 ]

  @DF-UKS Final Energy:   -79.16611861431703

   => Energetics <=

    Nuclear Repulsion Energy =             36.9544968534485108
    One-Electron Energy =                -178.1188063549502090
    Two-Electron Energy =                  72.2817577206453450
    DFT Exchange-Correlation Energy =     -10.2835668334606769
    Empirical Dispersion Energy =           0.0000000000000000
    VV10 Nonlocal Energy =                  0.0000000000000000
    Total Energy =                        -79.1661186143170283

  UHF NO Occupations:
  HONO-2 :    2App 1.9997314
  HONO-1 :    6 Ap 1.9987087
  HONO-0 :    7 Ap 1.0000000
  LUNO+0 :    8 Ap 0.0012913
  LUNO+1 :    3App 0.0002686
  LUNO+2 :    9 Ap 0.0002491
  LUNO+3 :   10 Ap 0.0002226

Computation Completed

Properties will be evaluated at   0.000000,   0.000000,   0.000000 [a0]

Properties computed using the SCF density matrix

  Nuclear Dipole Moment: [e a0]
     X:     0.1468      Y:    -0.6543      Z:     0.0000

  Electronic Dipole Moment: [e a0]
     X:    -0.1050      Y:     0.5680      Z:     0.0000

  Dipole Moment: [e a0]
     X:     0.0418      Y:    -0.0863      Z:     0.0000     Total:     0.0959

  Dipole Moment: [D]
     X:     0.1062      Y:    -0.2195      Z:     0.0000     Total:     0.2438

*** tstop() called on n071 at Fri Nov  5 19:19:49 2021
Module time:
	user time   =      53.54 seconds =       0.89 minutes
	system time =       0.66 seconds =       0.01 minutes
	total time  =         54 seconds =       0.90 minutes
Total time:
	user time   =      53.54 seconds =       0.89 minutes
	system time =       0.66 seconds =       0.01 minutes
	total time  =         54 seconds =       0.90 minutes
Grab this energy -79.16611861431703
    Psi4 stopped on: Friday, 05 November 2021 07:19PM
    Psi4 wall time for execution: 0:00:54.26

*** Psi4 exiting successfully. Buy a developer a beer!
