                               Psi4 1.4a2.dev629

  ==> Input File <==

--------------------------------------------------------------------------
import os
memory 14 GB

molecule {
 C   -0.0055030480   -1.3546206442   -0.0002106053
 C   -0.0194579063    1.4605271366   -0.0037816766
 H    1.9283403527   -2.1111303737    0.0011291412
 H   -0.9451874525   -2.1101713582    1.6740569857
 H   -0.9437249172   -2.1208455570   -1.6706896078
 H    0.1278775924    2.5219588035   -1.7500828429
 H    0.1287079552    2.5025917252    1.7495786058
units bohr
0 2
}

basis {

assign 6-31g_2dfp_

[ 6-31g_2dfp_ ]

spherical

!----------------------------------------------------------------------
! Basis Set Exchange
! Version v0.8.13
! https://www.basissetexchange.org
!----------------------------------------------------------------------
!   Basis set: 6-31G(2df,p)
! Description: 6-31G(2df,p)
!        Role: orbital
!     Version: 0  (Data from the original Basis Set Exchange)
!----------------------------------------------------------------------

****
H     0
S    3   1.00
     18.7311370              0.03349460
      2.8253937              0.23472695
      0.6401217              0.81375733
S    1   1.00
      0.1612778              1.00000000
P    1   1.00
      1.5000000              1.0000000
P    1   1.00
      0.3750000              1.0000000
****
B     0
S    6   1.00
   2068.8823000              0.0018663
    310.6495700              0.0142515
     70.6830330              0.0695516
     19.8610800              0.2325729
      6.2993048              0.4670787
      2.1270270              0.3634314
SP   3   1.00
      4.7279710             -0.1303938              0.0745976
      1.1903377             -0.1307889              0.3078467
      0.3594117              1.1309444              0.7434568
SP   1   1.00
      0.1267512              1.0000000              1.0000000
D    1   1.00
      0.8020000              1.0000000
D    1   1.00
      0.2005000              1.0000000
F    1   1.00
      0.5000000              1.0000000
****
C     0
S    6   1.00
   3047.5249000              0.0018347
    457.3695100              0.0140373
    103.9486900              0.0688426
     29.2101550              0.2321844
      9.2866630              0.4679413
      3.1639270              0.3623120
SP   3   1.00
      7.8682724             -0.1193324              0.0689991
      1.8812885             -0.1608542              0.3164240
      0.5442493              1.1434564              0.7443083
SP   1   1.00
      0.1687144              1.0000000              1.0000000
D    1   1.00
      1.2520000              1.0000000
D    1   1.00
      0.3130000              1.0000000
F    1   1.00
      0.8000000              1.0000000
****
N     0
S    6   1.00
   4173.5110000              0.0018348
    627.4579000              0.0139950
    142.9021000              0.0685870
     40.2343300              0.2322410
     12.8202100              0.4690700
      4.3904370              0.3604550
SP   3   1.00
     11.6263580             -0.1149610              0.0675800
      2.7162800             -0.1691180              0.3239070
      0.7722180              1.1458520              0.7408950
SP   1   1.00
      0.2120313              1.0000000              1.0000000
D    1   1.00
      1.8260000              1.0000000
D    1   1.00
      0.4565000              1.0000000
F    1   1.00
      1.0000000              1.0000000
****
O     0
S    6   1.00
   5484.6717000              0.0018311
    825.2349500              0.0139501
    188.0469600              0.0684451
     52.9645000              0.2327143
     16.8975700              0.4701930
      5.7996353              0.3585209
SP   3   1.00
     15.5396160             -0.1107775              0.0708743
      3.5999336             -0.1480263              0.3397528
      1.0137618              1.1307670              0.7271586
SP   1   1.00
      0.2700058              1.0000000              1.0000000
D    1   1.00
      2.5840000              1.0000000
D    1   1.00
      0.6460000              1.0000000
F    1   1.00
      1.4000000              1.0000000
****
F     0
S    6   1.00
   7001.7130900              0.0018196169
   1051.3660900              0.0139160796
    239.2856900              0.0684053245
     67.3974453              0.233185760
     21.5199573              0.471267439
      7.40310130             0.356618546
SP   3   1.00
     20.8479528             -0.108506975            0.0716287243
      4.80830834            -0.146451658            0.3459121030
      1.34406986             1.128688580            0.7224699570
SP   1   1.00
      0.358151393            1.0000000              1.0000000
D    1   1.00
      3.5000000              1.0000000
D    1   1.00
      0.8750000              1.0000000
F    1   1.00
      1.8500000              1.0000000
****
Al     0
S    6   1.00
  13983.1000000              0.00194267
   2098.7500000              0.0148599
    477.7050000              0.0728494
    134.3600000              0.2468300
     42.8709000              0.4872580
     14.5189000              0.3234960
SP   6   1.00
    239.6680000             -0.00292619             0.00460285
     57.4419000             -0.0374080              0.0331990
     18.2859000             -0.1144870              0.1362820
      6.5991400              0.1156350              0.3304760
      2.4904900              0.6125950              0.4491460
      0.9445400              0.3937990              0.2657040
SP   3   1.00
      1.2779000             -0.2276060             -0.0175130
      0.3975900              0.00144583             0.2445330
      0.1600950              1.0927900              0.8049340
SP   1   1.00
      0.0556577              1.0000000              1.0000000
D    1   1.00
      0.6500000              1.0000000
D    1   1.00
      0.1625000              1.0000000
F    1   1.00
      0.2500000              1.0000000
****
Si     0
S    6   1.00
  16115.9000000              0.00195948
   2425.5800000              0.01492880
    553.8670000              0.07284780
    156.3400000              0.24613000
     50.0683000              0.48591400
     17.0178000              0.32500200
SP   6   1.00
    292.7180000             -0.00278094             0.00443826
     69.8731000             -0.03571460             0.03266790
     22.3363000             -0.11498500             0.13472100
      8.1503900              0.09356340             0.32867800
      3.1345800              0.60301700             0.44964000
      1.2254300              0.41895900             0.26137200
SP   3   1.00
      1.7273800             -0.24463000            -0.01779510
      0.5729220              0.00431572             0.25353900
      0.2221920              1.09818000             0.80066900
SP   1   1.00
      0.0778369              1.00000000             1.00000000
D    1   1.00
      0.9000000              1.0000000
D    1   1.00
      0.2250000              1.0000000
F    1   1.00
      0.3200000              1.0000000
****
P     0
S    6   1.00
  19413.3000000              0.0018516
   2909.4200000              0.0142062
    661.3640000              0.0699995
    185.7590000              0.2400790
     59.1943000              0.4847620
     20.0310000              0.3352000
SP   6   1.00
    339.4780000             -0.00278217             0.00456462
     81.0101000             -0.0360499              0.03369360
     25.8780000             -0.1166310              0.13975500
      9.4522100              0.0968328              0.33936200
      3.6656600              0.6144180              0.45092100
      1.4674600              0.4037980              0.23858600
SP   3   1.00
      2.1562300             -0.2529230             -0.01776530
      0.7489970              0.0328517              0.27405800
      0.2831450              1.0812500              0.78542100
SP   1   1.00
      0.0998317              1.0000000              1.00000000
D    1   1.00
      1.1000000              1.0000000
D    1   1.00
      0.2750000              1.0000000
F    1   1.00
      0.4500000              1.0000000
****
S     0
S    6   1.00
  21917.1000000              0.0018690
   3301.4900000              0.0142300
    754.1460000              0.0696960
    212.7110000              0.2384870
     67.9896000              0.4833070
     23.0515000              0.3380740
SP   6   1.00
    423.7350000             -0.0023767              0.0040610
    100.7100000             -0.0316930              0.0306810
     32.1599000             -0.1133170              0.1304520
     11.8079000              0.0560900              0.3272050
      4.6311000              0.5922550              0.4528510
      1.8702500              0.4550060              0.2560420
SP   3   1.00
      2.6158400             -0.2503740             -0.0145110
      0.9221670              0.0669570              0.3102630
      0.3412870              1.0545100              0.7544830
SP   1   1.00
      0.1171670              1.0000000              1.0000000
D    1   1.00
      1.3000000              1.0000000
D    1   1.00
      0.3250000              1.0000000
F    1   1.00
      0.5500000              1.0000000
****
Cl     0
S    6   1.00
  25180.1000000              0.0018330
   3780.3500000              0.0140340
    860.4740000              0.0690970
    242.1450000              0.2374520
     77.3349000              0.4830340
     26.2470000              0.3398560
SP   6   1.00
    491.7650000             -0.0022974              0.0039894
    116.9840000             -0.0307140              0.0303180
     37.4153000             -0.1125280              0.1298800
     13.7834000              0.0450160              0.3279510
      5.4521500              0.5893530              0.4535270
      2.2258800              0.4652060              0.2521540
SP   3   1.00
      3.1864900             -0.2518300             -0.0142990
      1.1442700              0.0615890              0.3235720
      0.4203770              1.0601800              0.7435070
SP   1   1.00
      0.1426570              1.0000000              1.0000000
D    1   1.00
      1.5000000              1.0000000
D    1   1.00
      0.3750000              1.0000000
F    1   1.00
      0.7000000              1.0000000
****
}

set {
reference uhf
freeze_core true
e_convergence 10
d_convergence 10
dft_spherical_points 1202
dft_radial_points 99
}

e = energy('b3lyp')

print_out('Grab this energy {0}'.format(e))
--------------------------------------------------------------------------

    Molecular point group: c1

    Geometry (in Bohr), charge = 0, multiplicity = 2:

       Center              X                  Y                   Z               Mass
    ------------   -----------------  -----------------  -----------------  -----------------
         C           -0.005461669151    -1.352656773450     0.001300592466    12.000000000000
         C           -0.019416527451     1.462491007350    -0.002270478834    12.000000000000
         H            1.928381731549    -2.109166502950     0.002640338966     1.007825032230
         H           -0.945146073651    -2.108207487450     1.675568183466     1.007825032230
         H           -0.943683538351    -2.118881686250    -1.669178410034     1.007825032230
         H            0.127918971249     2.523922674250    -1.748571645134     1.007825032230
         H            0.128749334049     2.504555595950     1.751089803566     1.007825032230

  Charge       = 0
  Multiplicity = 2
  Basis Set: ANONYMOUS6B9ABDED
    Blend: 6-31G_2DFP_
  Basis Set: (ANONYMOUS6B9ABDED AUX)
    Blend: DEF2-UNIVERSAL-JKFIT

    Orbital Energies [Eh]
    ---------------------

    Alpha Occupied:

       1A    -10.179616     2A    -10.174163     3A     -0.751941
       4A     -0.604597     5A     -0.446013     6A     -0.410875
       7A     -0.385787     8A     -0.353758     9A     -0.197161

    Alpha Virtual:

      10A      0.099006    11A      0.127731    12A      0.140596
      13A      0.165646    14A      0.203205    15A      0.247984
      16A      0.430574    17A      0.440840    18A      0.445649
      19A      0.449768    20A      0.478832    21A      0.521090
      22A      0.543596    23A      0.574360    24A      0.594754
      25A      0.618421    26A      0.633941    27A      0.639710
      28A      0.649511    29A      0.741131    30A      0.822676
      31A      0.865731    32A      0.931420    33A      0.977419
      34A      1.024249    35A      1.071382    36A      1.083395
      37A      1.086173    38A      1.179662    39A      1.219218
      40A      1.253940    41A      1.323704    42A      1.346098
      43A      1.367726    44A      1.420598    45A      1.446043
      46A      1.509013    47A      1.526054    48A      1.602172
      49A      1.763068    50A      1.806708    51A      1.952061
      52A      2.050179    53A      2.101026    54A      2.698821
      55A      2.802571    56A      2.828798    57A      2.860650
      58A      2.928487    59A      2.962353    60A      2.985958
      61A      3.079736    62A      3.094183    63A      3.157041
      64A      3.171645    65A      3.199175    66A      3.300588
      67A      3.358064    68A      3.390370    69A      3.493491
      70A      3.499820    71A      3.582373    72A      3.595359
      73A      3.712845    74A      3.806787    75A      3.975231
      76A      4.025045    77A      4.089061    78A      4.128236
      79A      4.187798    80A      4.197621    81A      4.204986
      82A      4.292905    83A      4.369590    84A      4.490408
      85A      4.503172    86A      4.529775    87A      4.861815
      88A      4.925443    89A      5.144872    90A      5.164163
      91A      5.278968    92A      5.328922

    Beta Occupied:

       1A    -10.174986     2A    -10.165674     3A     -0.735314
       4A     -0.579947     5A     -0.439913     6A     -0.396126
       7A     -0.377861     8A     -0.349264

    Beta Virtual:

       9A     -0.035985    10A      0.101685    11A      0.138890
      12A      0.142254    13A      0.170501    14A      0.206817
      15A      0.253706    16A      0.441920    17A      0.444820
      18A      0.455392    19A      0.458978    20A      0.487790
      21A      0.549349    22A      0.587794    23A      0.592135
      24A      0.603420    25A      0.623709    26A      0.641818
      27A      0.645382    28A      0.656958    29A      0.766533
      30A      0.822464    31A      0.868785    32A      0.949031
      33A      0.988674    34A      1.032933    35A      1.079337
      36A      1.087895    37A      1.103735    38A      1.183288
      39A      1.226952    40A      1.266356    41A      1.330237
      42A      1.353629    43A      1.374076    44A      1.426607
      45A      1.453504    46A      1.513577    47A      1.537507
      48A      1.613034    49A      1.769668    50A      1.812886
      51A      1.956514    52A      2.060136    53A      2.106575
      54A      2.722062    55A      2.824404    56A      2.830692
      57A      2.876620    58A      2.931047    59A      2.989414
      60A      3.022561    61A      3.093365    62A      3.121362
      63A      3.174750    64A      3.211717    65A      3.218320
      66A      3.338980    67A      3.370524    68A      3.408867
      69A      3.519587    70A      3.536636    71A      3.599388
      72A      3.605454    73A      3.731059    74A      3.807117
      75A      3.985552    76A      4.034367    77A      4.095557
      78A      4.137723    79A      4.202108    80A      4.202399
      81A      4.214417    82A      4.300860    83A      4.373881
      84A      4.497457    85A      4.513909    86A      4.536952
      87A      4.863169    88A      4.929763    89A      5.148229
      90A      5.175029    91A      5.286115    92A      5.331474

    Final Occupation by Irrep:
              A
    DOCC [     8 ]
    SOCC [     1 ]

  @DF-UKS Final Energy:   -79.16617436933258

   => Energetics <=

    Nuclear Repulsion Energy =             36.9446719893483646
    One-Electron Energy =                -178.1022421976359738
    Two-Electron Energy =                  72.2723519713414504
    DFT Exchange-Correlation Energy =     -10.2809561323864234
    Empirical Dispersion Energy =           0.0000000000000000
    VV10 Nonlocal Energy =                  0.0000000000000000
    Total Energy =                        -79.1661743693325803

  UHF NO Occupations:
  HONO-2 :    7  A 1.9997293
  HONO-1 :    8  A 1.9987083
  HONO-0 :    9  A 1.0000000
  LUNO+0 :   10  A 0.0012917
  LUNO+1 :   11  A 0.0002707
  LUNO+2 :   12  A 0.0002523
  LUNO+3 :   13  A 0.0002213

Computation Completed

Properties will be evaluated at   0.000000,   0.000000,   0.000000 [a0]

Properties computed using the SCF density matrix

  Nuclear Dipole Moment: [e a0]
     X:     0.1470      Y:    -0.6488      Z:     0.0057

  Electronic Dipole Moment: [e a0]
     X:    -0.1045      Y:     0.5628      Z:    -0.0051

  Dipole Moment: [e a0]
     X:     0.0424      Y:    -0.0859      Z:     0.0006     Total:     0.0958

  Dipole Moment: [D]
     X:     0.1078      Y:    -0.2184      Z:     0.0016     Total:     0.2436

*** tstop() called on n045 at Fri Nov  5 19:01:55 2021
Module time:
	user time   =      61.29 seconds =       1.02 minutes
	system time =       0.43 seconds =       0.01 minutes
	total time  =         62 seconds =       1.03 minutes
Total time:
	user time   =      61.29 seconds =       1.02 minutes
	system time =       0.43 seconds =       0.01 minutes
	total time  =         62 seconds =       1.03 minutes
Grab this energy -79.16617436933258
    Psi4 stopped on: Friday, 05 November 2021 07:01PM
    Psi4 wall time for execution: 0:01:01.77

*** Psi4 exiting successfully. Buy a developer a beer!
