                               Psi4 1.4a2.dev629

  ==> Input File <==

--------------------------------------------------------------------------
import os
memory 14 GB

molecule {
 C   -0.0037573072   -1.3544158653    0.0017082573
 C   -0.0189555594    1.4654277503    0.0001311193
 H    1.9225343832   -2.1110826109    0.0046250264
 H   -0.9384236505   -2.1160204456    1.6734063055
 H   -0.9465176876   -2.1167273305   -1.6794464969
 H    0.1277946141    2.5109509517   -1.7497321915
 H    0.1283777837    2.5101772824    1.7493079800
units bohr
0 2
}

basis {

assign 6-31g_2dfp_

[ 6-31g_2dfp_ ]

spherical

!----------------------------------------------------------------------
! Basis Set Exchange
! Version v0.8.13
! https://www.basissetexchange.org
!----------------------------------------------------------------------
!   Basis set: 6-31G(2df,p)
! Description: 6-31G(2df,p)
!        Role: orbital
!     Version: 0  (Data from the original Basis Set Exchange)
!----------------------------------------------------------------------

****
H     0
S    3   1.00
     18.7311370              0.03349460
      2.8253937              0.23472695
      0.6401217              0.81375733
S    1   1.00
      0.1612778              1.00000000
P    1   1.00
      1.5000000              1.0000000
P    1   1.00
      0.3750000              1.0000000
****
B     0
S    6   1.00
   2068.8823000              0.0018663
    310.6495700              0.0142515
     70.6830330              0.0695516
     19.8610800              0.2325729
      6.2993048              0.4670787
      2.1270270              0.3634314
SP   3   1.00
      4.7279710             -0.1303938              0.0745976
      1.1903377             -0.1307889              0.3078467
      0.3594117              1.1309444              0.7434568
SP   1   1.00
      0.1267512              1.0000000              1.0000000
D    1   1.00
      0.8020000              1.0000000
D    1   1.00
      0.2005000              1.0000000
F    1   1.00
      0.5000000              1.0000000
****
C     0
S    6   1.00
   3047.5249000              0.0018347
    457.3695100              0.0140373
    103.9486900              0.0688426
     29.2101550              0.2321844
      9.2866630              0.4679413
      3.1639270              0.3623120
SP   3   1.00
      7.8682724             -0.1193324              0.0689991
      1.8812885             -0.1608542              0.3164240
      0.5442493              1.1434564              0.7443083
SP   1   1.00
      0.1687144              1.0000000              1.0000000
D    1   1.00
      1.2520000              1.0000000
D    1   1.00
      0.3130000              1.0000000
F    1   1.00
      0.8000000              1.0000000
****
N     0
S    6   1.00
   4173.5110000              0.0018348
    627.4579000              0.0139950
    142.9021000              0.0685870
     40.2343300              0.2322410
     12.8202100              0.4690700
      4.3904370              0.3604550
SP   3   1.00
     11.6263580             -0.1149610              0.0675800
      2.7162800             -0.1691180              0.3239070
      0.7722180              1.1458520              0.7408950
SP   1   1.00
      0.2120313              1.0000000              1.0000000
D    1   1.00
      1.8260000              1.0000000
D    1   1.00
      0.4565000              1.0000000
F    1   1.00
      1.0000000              1.0000000
****
O     0
S    6   1.00
   5484.6717000              0.0018311
    825.2349500              0.0139501
    188.0469600              0.0684451
     52.9645000              0.2327143
     16.8975700              0.4701930
      5.7996353              0.3585209
SP   3   1.00
     15.5396160             -0.1107775              0.0708743
      3.5999336             -0.1480263              0.3397528
      1.0137618              1.1307670              0.7271586
SP   1   1.00
      0.2700058              1.0000000              1.0000000
D    1   1.00
      2.5840000              1.0000000
D    1   1.00
      0.6460000              1.0000000
F    1   1.00
      1.4000000              1.0000000
****
F     0
S    6   1.00
   7001.7130900              0.0018196169
   1051.3660900              0.0139160796
    239.2856900              0.0684053245
     67.3974453              0.233185760
     21.5199573              0.471267439
      7.40310130             0.356618546
SP   3   1.00
     20.8479528             -0.108506975            0.0716287243
      4.80830834            -0.146451658            0.3459121030
      1.34406986             1.128688580            0.7224699570
SP   1   1.00
      0.358151393            1.0000000              1.0000000
D    1   1.00
      3.5000000              1.0000000
D    1   1.00
      0.8750000              1.0000000
F    1   1.00
      1.8500000              1.0000000
****
Al     0
S    6   1.00
  13983.1000000              0.00194267
   2098.7500000              0.0148599
    477.7050000              0.0728494
    134.3600000              0.2468300
     42.8709000              0.4872580
     14.5189000              0.3234960
SP   6   1.00
    239.6680000             -0.00292619             0.00460285
     57.4419000             -0.0374080              0.0331990
     18.2859000             -0.1144870              0.1362820
      6.5991400              0.1156350              0.3304760
      2.4904900              0.6125950              0.4491460
      0.9445400              0.3937990              0.2657040
SP   3   1.00
      1.2779000             -0.2276060             -0.0175130
      0.3975900              0.00144583             0.2445330
      0.1600950              1.0927900              0.8049340
SP   1   1.00
      0.0556577              1.0000000              1.0000000
D    1   1.00
      0.6500000              1.0000000
D    1   1.00
      0.1625000              1.0000000
F    1   1.00
      0.2500000              1.0000000
****
Si     0
S    6   1.00
  16115.9000000              0.00195948
   2425.5800000              0.01492880
    553.8670000              0.07284780
    156.3400000              0.24613000
     50.0683000              0.48591400
     17.0178000              0.32500200
SP   6   1.00
    292.7180000             -0.00278094             0.00443826
     69.8731000             -0.03571460             0.03266790
     22.3363000             -0.11498500             0.13472100
      8.1503900              0.09356340             0.32867800
      3.1345800              0.60301700             0.44964000
      1.2254300              0.41895900             0.26137200
SP   3   1.00
      1.7273800             -0.24463000            -0.01779510
      0.5729220              0.00431572             0.25353900
      0.2221920              1.09818000             0.80066900
SP   1   1.00
      0.0778369              1.00000000             1.00000000
D    1   1.00
      0.9000000              1.0000000
D    1   1.00
      0.2250000              1.0000000
F    1   1.00
      0.3200000              1.0000000
****
P     0
S    6   1.00
  19413.3000000              0.0018516
   2909.4200000              0.0142062
    661.3640000              0.0699995
    185.7590000              0.2400790
     59.1943000              0.4847620
     20.0310000              0.3352000
SP   6   1.00
    339.4780000             -0.00278217             0.00456462
     81.0101000             -0.0360499              0.03369360
     25.8780000             -0.1166310              0.13975500
      9.4522100              0.0968328              0.33936200
      3.6656600              0.6144180              0.45092100
      1.4674600              0.4037980              0.23858600
SP   3   1.00
      2.1562300             -0.2529230             -0.01776530
      0.7489970              0.0328517              0.27405800
      0.2831450              1.0812500              0.78542100
SP   1   1.00
      0.0998317              1.0000000              1.00000000
D    1   1.00
      1.1000000              1.0000000
D    1   1.00
      0.2750000              1.0000000
F    1   1.00
      0.4500000              1.0000000
****
S     0
S    6   1.00
  21917.1000000              0.0018690
   3301.4900000              0.0142300
    754.1460000              0.0696960
    212.7110000              0.2384870
     67.9896000              0.4833070
     23.0515000              0.3380740
SP   6   1.00
    423.7350000             -0.0023767              0.0040610
    100.7100000             -0.0316930              0.0306810
     32.1599000             -0.1133170              0.1304520
     11.8079000              0.0560900              0.3272050
      4.6311000              0.5922550              0.4528510
      1.8702500              0.4550060              0.2560420
SP   3   1.00
      2.6158400             -0.2503740             -0.0145110
      0.9221670              0.0669570              0.3102630
      0.3412870              1.0545100              0.7544830
SP   1   1.00
      0.1171670              1.0000000              1.0000000
D    1   1.00
      1.3000000              1.0000000
D    1   1.00
      0.3250000              1.0000000
F    1   1.00
      0.5500000              1.0000000
****
Cl     0
S    6   1.00
  25180.1000000              0.0018330
   3780.3500000              0.0140340
    860.4740000              0.0690970
    242.1450000              0.2374520
     77.3349000              0.4830340
     26.2470000              0.3398560
SP   6   1.00
    491.7650000             -0.0022974              0.0039894
    116.9840000             -0.0307140              0.0303180
     37.4153000             -0.1125280              0.1298800
     13.7834000              0.0450160              0.3279510
      5.4521500              0.5893530              0.4535270
      2.2258800              0.4652060              0.2521540
SP   3   1.00
      3.1864900             -0.2518300             -0.0142990
      1.1442700              0.0615890              0.3235720
      0.4203770              1.0601800              0.7435070
SP   1   1.00
      0.1426570              1.0000000              1.0000000
D    1   1.00
      1.5000000              1.0000000
D    1   1.00
      0.3750000              1.0000000
F    1   1.00
      0.7000000              1.0000000
****
}

set {
reference uhf
freeze_core true
e_convergence 10
d_convergence 10
dft_spherical_points 1202
dft_radial_points 99
}

e = energy('b3lyp')

print_out('Grab this energy {0}'.format(e))
--------------------------------------------------------------------------

    Molecular point group: c1

    Geometry (in Bohr), charge = 0, multiplicity = 2:

       Center              X                  Y                   Z               Mass
    ------------   -----------------  -----------------  -----------------  -----------------
         C           -0.004566896595    -1.354384537914     0.001011998394    12.000000000000
         C           -0.019765148795     1.465459077686    -0.000565139606    12.000000000000
         H            1.921724793805    -2.111051283514     0.003928767494     1.007825032230
         H           -0.939233239895    -2.115989118214     1.672710046594     1.007825032230
         H           -0.947327276995    -2.116696003114    -1.680142755806     1.007825032230
         H            0.126985024705     2.510982279086    -1.750428450406     1.007825032230
         H            0.127568194305     2.510208609786     1.748611721094     1.007825032230

  Charge       = 0
  Multiplicity = 2
  Basis Set: ANONYMOUSE2783352
    Blend: 6-31G_2DFP_
  Basis Set: (ANONYMOUSE2783352 AUX)
    Blend: DEF2-UNIVERSAL-JKFIT

    Orbital Energies [Eh]
    ---------------------

    Alpha Occupied:

       1A    -10.179492     2A    -10.174196     3A     -0.751539
       4A     -0.604995     5A     -0.446192     6A     -0.410763
       7A     -0.385152     8A     -0.354157     9A     -0.197359

    Alpha Virtual:

      10A      0.098965    11A      0.128116    12A      0.140677
      13A      0.166173    14A      0.203174    15A      0.247139
      16A      0.430337    17A      0.440786    18A      0.446279
      19A      0.449910    20A      0.478407    21A      0.521192
      22A      0.543922    23A      0.574023    24A      0.594129
      25A      0.618409    26A      0.635201    27A      0.639174
      28A      0.649983    29A      0.741337    30A      0.822588
      31A      0.865698    32A      0.931465    33A      0.977588
      34A      1.024799    35A      1.071388    36A      1.083430
      37A      1.085557    38A      1.178965    39A      1.220135
      40A      1.254677    41A      1.323875    42A      1.344476
      43A      1.367089    44A      1.421882    45A      1.444916
      46A      1.510279    47A      1.523895    48A      1.603602
      49A      1.766929    50A      1.803938    51A      1.950503
      52A      2.049973    53A      2.105116    54A      2.698652
      55A      2.801241    56A      2.828715    57A      2.859651
      58A      2.928617    59A      2.963403    60A      2.987181
      61A      3.079978    62A      3.092605    63A      3.158780
      64A      3.170762    65A      3.199552    66A      3.300511
      67A      3.358909    68A      3.389652    69A      3.494238
      70A      3.500985    71A      3.580324    72A      3.593297
      73A      3.712025    74A      3.806572    75A      3.973963
      76A      4.024376    77A      4.086781    78A      4.129921
      79A      4.189430    80A      4.198794    81A      4.206230
      82A      4.294187    83A      4.368317    84A      4.488143
      85A      4.504287    86A      4.526346    87A      4.863743
      88A      4.924652    89A      5.145875    90A      5.169683
      91A      5.282486    92A      5.325944

    Beta Occupied:

       1A    -10.175012     2A    -10.165547     3A     -0.734880
       4A     -0.580352     5A     -0.440031     6A     -0.396122
       7A     -0.377251     8A     -0.349697

    Beta Virtual:

       9A     -0.036046    10A      0.101614    11A      0.139271
      12A      0.142297    13A      0.170984    14A      0.206787
      15A      0.252882    16A      0.441816    17A      0.444927
      18A      0.455622    19A      0.459254    20A      0.487377
      21A      0.549377    22A      0.587349    23A      0.592472
      24A      0.602903    25A      0.623819    26A      0.642851
      27A      0.645140    28A      0.657436    29A      0.766717
      30A      0.822372    31A      0.868724    32A      0.949069
      33A      0.988829    34A      1.033409    35A      1.079366
      36A      1.088509    37A      1.102473    38A      1.182657
      39A      1.227878    40A      1.266894    41A      1.330406
      42A      1.351933    43A      1.373491    44A      1.427845
      45A      1.452439    46A      1.514874    47A      1.535087
      48A      1.614758    49A      1.773372    50A      1.810237
      51A      1.954944    52A      2.059930    53A      2.110641
      54A      2.721907    55A      2.823125    56A      2.830613
      57A      2.875654    58A      2.931136    59A      2.990682
      60A      3.023575    61A      3.093483    62A      3.119752
      63A      3.176527    64A      3.210761    65A      3.218635
      66A      3.339255    67A      3.371791    68A      3.407901
      69A      3.520820    70A      3.537382    71A      3.596881
      72A      3.603608    73A      3.730159    74A      3.806906
      75A      3.984533    76A      4.033510    77A      4.093113
      78A      4.139451    79A      4.202463    80A      4.204852
      81A      4.215599    82A      4.302045    83A      4.372644
      84A      4.495199    85A      4.514920    86A      4.533652
      87A      4.865106    88A      4.928895    89A      5.149171
      90A      5.180598    91A      5.289571    92A      5.328566

    Final Occupation by Irrep:
              A
    DOCC [     8 ]
    SOCC [     1 ]

  @DF-UKS Final Energy:   -79.16614042698572

   => Energetics <=

    Nuclear Repulsion Energy =             36.9304504148112542
    One-Electron Energy =                -178.0737518943037117
    Two-Electron Energy =                  72.2584315898808995
    DFT Exchange-Correlation Energy =     -10.2812705373741498
    Empirical Dispersion Energy =           0.0000000000000000
    VV10 Nonlocal Energy =                  0.0000000000000000
    Total Energy =                        -79.1661404269857201

  UHF NO Occupations:
  HONO-2 :    7  A 1.9997315
  HONO-1 :    8  A 1.9987091
  HONO-0 :    9  A 1.0000000
  LUNO+0 :   10  A 0.0012909
  LUNO+1 :   11  A 0.0002685
  LUNO+2 :   12  A 0.0002471
  LUNO+3 :   13  A 0.0002217

Computation Completed

Properties will be evaluated at   0.000000,   0.000000,   0.000000 [a0]

Properties computed using the SCF density matrix

  Nuclear Dipole Moment: [e a0]
     X:     0.1437      Y:    -0.6561      Z:    -0.0026

  Electronic Dipole Moment: [e a0]
     X:    -0.0996      Y:     0.5710      Z:     0.0042

  Dipole Moment: [e a0]
     X:     0.0441      Y:    -0.0851      Z:     0.0015     Total:     0.0958

  Dipole Moment: [D]
     X:     0.1121      Y:    -0.2162      Z:     0.0039     Total:     0.2436

*** tstop() called on n079 at Fri Nov  5 19:12:46 2021
Module time:
	user time   =      43.51 seconds =       0.73 minutes
	system time =       0.60 seconds =       0.01 minutes
	total time  =         44 seconds =       0.73 minutes
Total time:
	user time   =      43.51 seconds =       0.73 minutes
	system time =       0.60 seconds =       0.01 minutes
	total time  =         44 seconds =       0.73 minutes
Grab this energy -79.16614042698572
    Psi4 stopped on: Friday, 05 November 2021 07:12PM
    Psi4 wall time for execution: 0:00:44.16

*** Psi4 exiting successfully. Buy a developer a beer!
