                               Psi4 1.4a2.dev629

  ==> Input File <==

--------------------------------------------------------------------------
import os
memory 14 GB

molecule {
 C   -0.0030868001   -1.3542947640   -0.0002057231
 C   -0.0176111079    1.4654458256   -0.0037662259
 H    1.9277991639   -2.1116965567    0.0011279489
 H   -0.9460851292   -2.1108099927    1.6735245227
 H   -0.9446263485   -2.1214611596   -1.6701515338
 H    0.1269211835    2.5202515736   -1.7497795953
 H    0.1277416145    2.5008748061    1.7492506065
units bohr
0 2
}

basis {

assign 6-31g_2dfp_

[ 6-31g_2dfp_ ]

spherical

!----------------------------------------------------------------------
! Basis Set Exchange
! Version v0.8.13
! https://www.basissetexchange.org
!----------------------------------------------------------------------
!   Basis set: 6-31G(2df,p)
! Description: 6-31G(2df,p)
!        Role: orbital
!     Version: 0  (Data from the original Basis Set Exchange)
!----------------------------------------------------------------------

****
H     0
S    3   1.00
     18.7311370              0.03349460
      2.8253937              0.23472695
      0.6401217              0.81375733
S    1   1.00
      0.1612778              1.00000000
P    1   1.00
      1.5000000              1.0000000
P    1   1.00
      0.3750000              1.0000000
****
B     0
S    6   1.00
   2068.8823000              0.0018663
    310.6495700              0.0142515
     70.6830330              0.0695516
     19.8610800              0.2325729
      6.2993048              0.4670787
      2.1270270              0.3634314
SP   3   1.00
      4.7279710             -0.1303938              0.0745976
      1.1903377             -0.1307889              0.3078467
      0.3594117              1.1309444              0.7434568
SP   1   1.00
      0.1267512              1.0000000              1.0000000
D    1   1.00
      0.8020000              1.0000000
D    1   1.00
      0.2005000              1.0000000
F    1   1.00
      0.5000000              1.0000000
****
C     0
S    6   1.00
   3047.5249000              0.0018347
    457.3695100              0.0140373
    103.9486900              0.0688426
     29.2101550              0.2321844
      9.2866630              0.4679413
      3.1639270              0.3623120
SP   3   1.00
      7.8682724             -0.1193324              0.0689991
      1.8812885             -0.1608542              0.3164240
      0.5442493              1.1434564              0.7443083
SP   1   1.00
      0.1687144              1.0000000              1.0000000
D    1   1.00
      1.2520000              1.0000000
D    1   1.00
      0.3130000              1.0000000
F    1   1.00
      0.8000000              1.0000000
****
N     0
S    6   1.00
   4173.5110000              0.0018348
    627.4579000              0.0139950
    142.9021000              0.0685870
     40.2343300              0.2322410
     12.8202100              0.4690700
      4.3904370              0.3604550
SP   3   1.00
     11.6263580             -0.1149610              0.0675800
      2.7162800             -0.1691180              0.3239070
      0.7722180              1.1458520              0.7408950
SP   1   1.00
      0.2120313              1.0000000              1.0000000
D    1   1.00
      1.8260000              1.0000000
D    1   1.00
      0.4565000              1.0000000
F    1   1.00
      1.0000000              1.0000000
****
O     0
S    6   1.00
   5484.6717000              0.0018311
    825.2349500              0.0139501
    188.0469600              0.0684451
     52.9645000              0.2327143
     16.8975700              0.4701930
      5.7996353              0.3585209
SP   3   1.00
     15.5396160             -0.1107775              0.0708743
      3.5999336             -0.1480263              0.3397528
      1.0137618              1.1307670              0.7271586
SP   1   1.00
      0.2700058              1.0000000              1.0000000
D    1   1.00
      2.5840000              1.0000000
D    1   1.00
      0.6460000              1.0000000
F    1   1.00
      1.4000000              1.0000000
****
F     0
S    6   1.00
   7001.7130900              0.0018196169
   1051.3660900              0.0139160796
    239.2856900              0.0684053245
     67.3974453              0.233185760
     21.5199573              0.471267439
      7.40310130             0.356618546
SP   3   1.00
     20.8479528             -0.108506975            0.0716287243
      4.80830834            -0.146451658            0.3459121030
      1.34406986             1.128688580            0.7224699570
SP   1   1.00
      0.358151393            1.0000000              1.0000000
D    1   1.00
      3.5000000              1.0000000
D    1   1.00
      0.8750000              1.0000000
F    1   1.00
      1.8500000              1.0000000
****
Al     0
S    6   1.00
  13983.1000000              0.00194267
   2098.7500000              0.0148599
    477.7050000              0.0728494
    134.3600000              0.2468300
     42.8709000              0.4872580
     14.5189000              0.3234960
SP   6   1.00
    239.6680000             -0.00292619             0.00460285
     57.4419000             -0.0374080              0.0331990
     18.2859000             -0.1144870              0.1362820
      6.5991400              0.1156350              0.3304760
      2.4904900              0.6125950              0.4491460
      0.9445400              0.3937990              0.2657040
SP   3   1.00
      1.2779000             -0.2276060             -0.0175130
      0.3975900              0.00144583             0.2445330
      0.1600950              1.0927900              0.8049340
SP   1   1.00
      0.0556577              1.0000000              1.0000000
D    1   1.00
      0.6500000              1.0000000
D    1   1.00
      0.1625000              1.0000000
F    1   1.00
      0.2500000              1.0000000
****
Si     0
S    6   1.00
  16115.9000000              0.00195948
   2425.5800000              0.01492880
    553.8670000              0.07284780
    156.3400000              0.24613000
     50.0683000              0.48591400
     17.0178000              0.32500200
SP   6   1.00
    292.7180000             -0.00278094             0.00443826
     69.8731000             -0.03571460             0.03266790
     22.3363000             -0.11498500             0.13472100
      8.1503900              0.09356340             0.32867800
      3.1345800              0.60301700             0.44964000
      1.2254300              0.41895900             0.26137200
SP   3   1.00
      1.7273800             -0.24463000            -0.01779510
      0.5729220              0.00431572             0.25353900
      0.2221920              1.09818000             0.80066900
SP   1   1.00
      0.0778369              1.00000000             1.00000000
D    1   1.00
      0.9000000              1.0000000
D    1   1.00
      0.2250000              1.0000000
F    1   1.00
      0.3200000              1.0000000
****
P     0
S    6   1.00
  19413.3000000              0.0018516
   2909.4200000              0.0142062
    661.3640000              0.0699995
    185.7590000              0.2400790
     59.1943000              0.4847620
     20.0310000              0.3352000
SP   6   1.00
    339.4780000             -0.00278217             0.00456462
     81.0101000             -0.0360499              0.03369360
     25.8780000             -0.1166310              0.13975500
      9.4522100              0.0968328              0.33936200
      3.6656600              0.6144180              0.45092100
      1.4674600              0.4037980              0.23858600
SP   3   1.00
      2.1562300             -0.2529230             -0.01776530
      0.7489970              0.0328517              0.27405800
      0.2831450              1.0812500              0.78542100
SP   1   1.00
      0.0998317              1.0000000              1.00000000
D    1   1.00
      1.1000000              1.0000000
D    1   1.00
      0.2750000              1.0000000
F    1   1.00
      0.4500000              1.0000000
****
S     0
S    6   1.00
  21917.1000000              0.0018690
   3301.4900000              0.0142300
    754.1460000              0.0696960
    212.7110000              0.2384870
     67.9896000              0.4833070
     23.0515000              0.3380740
SP   6   1.00
    423.7350000             -0.0023767              0.0040610
    100.7100000             -0.0316930              0.0306810
     32.1599000             -0.1133170              0.1304520
     11.8079000              0.0560900              0.3272050
      4.6311000              0.5922550              0.4528510
      1.8702500              0.4550060              0.2560420
SP   3   1.00
      2.6158400             -0.2503740             -0.0145110
      0.9221670              0.0669570              0.3102630
      0.3412870              1.0545100              0.7544830
SP   1   1.00
      0.1171670              1.0000000              1.0000000
D    1   1.00
      1.3000000              1.0000000
D    1   1.00
      0.3250000              1.0000000
F    1   1.00
      0.5500000              1.0000000
****
Cl     0
S    6   1.00
  25180.1000000              0.0018330
   3780.3500000              0.0140340
    860.4740000              0.0690970
    242.1450000              0.2374520
     77.3349000              0.4830340
     26.2470000              0.3398560
SP   6   1.00
    491.7650000             -0.0022974              0.0039894
    116.9840000             -0.0307140              0.0303180
     37.4153000             -0.1125280              0.1298800
     13.7834000              0.0450160              0.3279510
      5.4521500              0.5893530              0.4535270
      2.2258800              0.4652060              0.2521540
SP   3   1.00
      3.1864900             -0.2518300             -0.0142990
      1.1442700              0.0615890              0.3235720
      0.4203770              1.0601800              0.7435070
SP   1   1.00
      0.1426570              1.0000000              1.0000000
D    1   1.00
      1.5000000              1.0000000
D    1   1.00
      0.3750000              1.0000000
F    1   1.00
      0.7000000              1.0000000
****
}

set {
reference uhf
freeze_core true
e_convergence 10
d_convergence 10
dft_spherical_points 1202
dft_radial_points 99
}

e = energy('b3lyp')

print_out('Grab this energy {0}'.format(e))
--------------------------------------------------------------------------

    Molecular point group: c1

    Geometry (in Bohr), charge = 0, multiplicity = 2:

       Center              X                  Y                   Z               Mass
    ------------   -----------------  -----------------  -----------------  -----------------
         C           -0.004659111418    -1.354316119115     0.001297778060    12.000000000000
         C           -0.019183419218     1.465424470485    -0.002262724740    12.000000000000
         H            1.926226852582    -2.111717911815     0.002631450060     1.007825032230
         H           -0.947657440518    -2.110831347815     1.675028023860     1.007825032230
         H           -0.946198659818    -2.121482514715    -1.668648032640     1.007825032230
         H            0.125348872182     2.520230218485    -1.748276094140     1.007825032230
         H            0.126169303182     2.500853450985     1.750754107660     1.007825032230

  Charge       = 0
  Multiplicity = 2
  Basis Set: ANONYMOUSFA65F82F
    Blend: 6-31G_2DFP_
  Basis Set: (ANONYMOUSFA65F82F AUX)
    Blend: DEF2-UNIVERSAL-JKFIT

    Orbital Energies [Eh]
    ---------------------

    Alpha Occupied:

       1A    -10.179480     2A    -10.174189     3A     -0.751534
       4A     -0.604985     5A     -0.446125     6A     -0.410844
       7A     -0.385246     8A     -0.354040     9A     -0.197376

    Alpha Virtual:

      10A      0.099057    11A      0.127988    12A      0.140811
      13A      0.165971    14A      0.203283    15A      0.247193
      16A      0.430291    17A      0.440737    18A      0.446282
      19A      0.450126    20A      0.478626    21A      0.520925
      22A      0.543796    23A      0.574133    24A      0.594095
      25A      0.618577    26A      0.634462    27A      0.639586
      28A      0.650148    29A      0.741262    30A      0.822611
      31A      0.865927    32A      0.931142    33A      0.977088
      34A      1.024756    35A      1.071199    36A      1.083770
      37A      1.085472    38A      1.180717    39A      1.220112
      40A      1.254061    41A      1.323087    42A      1.344608
      43A      1.368155    44A      1.420393    45A      1.445763
      46A      1.510039    47A      1.523790    48A      1.603330
      49A      1.765202    50A      1.806379    51A      1.951424
      52A      2.050045    53A      2.103676    54A      2.698434
      55A      2.801243    56A      2.828705    57A      2.860305
      58A      2.928941    59A      2.963173    60A      2.986452
      61A      3.079694    62A      3.093293    63A      3.159165
      64A      3.171114    65A      3.199293    66A      3.299987
      67A      3.357650    68A      3.390096    69A      3.494306
      70A      3.499376    71A      3.580587    72A      3.594901
      73A      3.712084    74A      3.807391    75A      3.973782
      76A      4.023699    77A      4.088077    78A      4.129442
      79A      4.189352    80A      4.197973    81A      4.205032
      82A      4.294799    83A      4.368355    84A      4.489762
      85A      4.503163    86A      4.526887    87A      4.864680
      88A      4.924506    89A      5.146120    90A      5.169341
      91A      5.278929    92A      5.329058

    Beta Occupied:

       1A    -10.175008     2A    -10.165536     3A     -0.734872
       4A     -0.580360     5A     -0.439959     6A     -0.396226
       7A     -0.377311     8A     -0.349602

    Beta Virtual:

       9A     -0.036068    10A      0.101702    11A      0.139157
      12A      0.142435    13A      0.170787    14A      0.206884
      15A      0.252931    16A      0.441787    17A      0.444971
      18A      0.455790    19A      0.459269    20A      0.487514
      21A      0.549082    22A      0.587526    23A      0.592391
      24A      0.602853    25A      0.623935    26A      0.642322
      27A      0.645342    28A      0.657593    29A      0.766626
      30A      0.822399    31A      0.868951    32A      0.948762
      33A      0.988272    34A      1.033302    35A      1.079293
      36A      1.089151    37A      1.102087    38A      1.184317
      39A      1.227914    40A      1.266440    41A      1.329565
      42A      1.352158    43A      1.374448    44A      1.426354
      45A      1.453254    46A      1.514632    47A      1.535035
      48A      1.614435    49A      1.771679    50A      1.812651
      51A      1.955864    52A      2.059990    53A      2.109185
      54A      2.721695    55A      2.823081    56A      2.830550
      57A      2.876417    58A      2.931475    59A      2.989960
      60A      3.023274    61A      3.093206    62A      3.120492
      63A      3.176823    64A      3.211241    65A      3.218310
      66A      3.338759    67A      3.369921    68A      3.409007
      69A      3.519296    70A      3.537243    71A      3.597244
      72A      3.605082    73A      3.730244    74A      3.807766
      75A      3.984410    76A      4.032849    77A      4.094516
      78A      4.138940    79A      4.202321    80A      4.204083
      81A      4.214308    82A      4.302769    83A      4.372590
      84A      4.496846    85A      4.513691    86A      4.534211
      87A      4.866032    88A      4.928761    89A      5.149447
      90A      5.180216    91A      5.286059    92A      5.331610

    Final Occupation by Irrep:
              A
    DOCC [     8 ]
    SOCC [     1 ]

  @DF-UKS Final Energy:   -79.16615788015856

   => Energetics <=

    Nuclear Repulsion Energy =             36.9308780530545278
    One-Electron Energy =                -178.0746735045849789
    Two-Electron Energy =                  72.2589332880341999
    DFT Exchange-Correlation Energy =     -10.2812957166623118
    Empirical Dispersion Energy =           0.0000000000000000
    VV10 Nonlocal Energy =                  0.0000000000000000
    Total Energy =                        -79.1661578801585648

  UHF NO Occupations:
  HONO-2 :    7  A 1.9997316
  HONO-1 :    8  A 1.9987082
  HONO-0 :    9  A 1.0000000
  LUNO+0 :   10  A 0.0012918
  LUNO+1 :   11  A 0.0002684
  LUNO+2 :   12  A 0.0002484
  LUNO+3 :   13  A 0.0002217

Computation Completed

Properties will be evaluated at   0.000000,   0.000000,   0.000000 [a0]

Properties computed using the SCF density matrix

  Nuclear Dipole Moment: [e a0]
     X:     0.1408      Y:    -0.6563      Z:     0.0057

  Electronic Dipole Moment: [e a0]
     X:    -0.0987      Y:     0.5715      Z:    -0.0051

  Dipole Moment: [e a0]
     X:     0.0422      Y:    -0.0848      Z:     0.0006     Total:     0.0947

  Dipole Moment: [D]
     X:     0.1072      Y:    -0.2155      Z:     0.0016     Total:     0.2407

*** tstop() called on n044 at Fri Nov  5 18:37:51 2021
Module time:
	user time   =      61.99 seconds =       1.03 minutes
	system time =       0.46 seconds =       0.01 minutes
	total time  =         63 seconds =       1.05 minutes
Total time:
	user time   =      61.99 seconds =       1.03 minutes
	system time =       0.46 seconds =       0.01 minutes
	total time  =         63 seconds =       1.05 minutes
Grab this energy -79.16615788015856
    Psi4 stopped on: Friday, 05 November 2021 06:37PM
    Psi4 wall time for execution: 0:01:02.49

*** Psi4 exiting successfully. Buy a developer a beer!
