                               Psi4 1.4a2.dev629

  ==> Input File <==

--------------------------------------------------------------------------
import os
memory 14 GB

molecule {
 C   -0.0054785341   -1.3544041700    0.0011479021
 C   -0.0193713657    1.4655022935    0.0045896140
 H    1.9281501389   -2.1116832356   -0.0008160280
 H   -0.9448264663   -2.1155021668    1.6716664729
 H   -0.9438303580   -2.1166988547   -1.6728062827
 H    0.1280363545    2.5111734687   -1.7513889116
 H    0.1283728071    2.5099223972    1.7476072334
units bohr
0 2
}

basis {

assign 6-31g_2dfp_

[ 6-31g_2dfp_ ]

spherical

!----------------------------------------------------------------------
! Basis Set Exchange
! Version v0.8.13
! https://www.basissetexchange.org
!----------------------------------------------------------------------
!   Basis set: 6-31G(2df,p)
! Description: 6-31G(2df,p)
!        Role: orbital
!     Version: 0  (Data from the original Basis Set Exchange)
!----------------------------------------------------------------------

****
H     0
S    3   1.00
     18.7311370              0.03349460
      2.8253937              0.23472695
      0.6401217              0.81375733
S    1   1.00
      0.1612778              1.00000000
P    1   1.00
      1.5000000              1.0000000
P    1   1.00
      0.3750000              1.0000000
****
B     0
S    6   1.00
   2068.8823000              0.0018663
    310.6495700              0.0142515
     70.6830330              0.0695516
     19.8610800              0.2325729
      6.2993048              0.4670787
      2.1270270              0.3634314
SP   3   1.00
      4.7279710             -0.1303938              0.0745976
      1.1903377             -0.1307889              0.3078467
      0.3594117              1.1309444              0.7434568
SP   1   1.00
      0.1267512              1.0000000              1.0000000
D    1   1.00
      0.8020000              1.0000000
D    1   1.00
      0.2005000              1.0000000
F    1   1.00
      0.5000000              1.0000000
****
C     0
S    6   1.00
   3047.5249000              0.0018347
    457.3695100              0.0140373
    103.9486900              0.0688426
     29.2101550              0.2321844
      9.2866630              0.4679413
      3.1639270              0.3623120
SP   3   1.00
      7.8682724             -0.1193324              0.0689991
      1.8812885             -0.1608542              0.3164240
      0.5442493              1.1434564              0.7443083
SP   1   1.00
      0.1687144              1.0000000              1.0000000
D    1   1.00
      1.2520000              1.0000000
D    1   1.00
      0.3130000              1.0000000
F    1   1.00
      0.8000000              1.0000000
****
N     0
S    6   1.00
   4173.5110000              0.0018348
    627.4579000              0.0139950
    142.9021000              0.0685870
     40.2343300              0.2322410
     12.8202100              0.4690700
      4.3904370              0.3604550
SP   3   1.00
     11.6263580             -0.1149610              0.0675800
      2.7162800             -0.1691180              0.3239070
      0.7722180              1.1458520              0.7408950
SP   1   1.00
      0.2120313              1.0000000              1.0000000
D    1   1.00
      1.8260000              1.0000000
D    1   1.00
      0.4565000              1.0000000
F    1   1.00
      1.0000000              1.0000000
****
O     0
S    6   1.00
   5484.6717000              0.0018311
    825.2349500              0.0139501
    188.0469600              0.0684451
     52.9645000              0.2327143
     16.8975700              0.4701930
      5.7996353              0.3585209
SP   3   1.00
     15.5396160             -0.1107775              0.0708743
      3.5999336             -0.1480263              0.3397528
      1.0137618              1.1307670              0.7271586
SP   1   1.00
      0.2700058              1.0000000              1.0000000
D    1   1.00
      2.5840000              1.0000000
D    1   1.00
      0.6460000              1.0000000
F    1   1.00
      1.4000000              1.0000000
****
F     0
S    6   1.00
   7001.7130900              0.0018196169
   1051.3660900              0.0139160796
    239.2856900              0.0684053245
     67.3974453              0.233185760
     21.5199573              0.471267439
      7.40310130             0.356618546
SP   3   1.00
     20.8479528             -0.108506975            0.0716287243
      4.80830834            -0.146451658            0.3459121030
      1.34406986             1.128688580            0.7224699570
SP   1   1.00
      0.358151393            1.0000000              1.0000000
D    1   1.00
      3.5000000              1.0000000
D    1   1.00
      0.8750000              1.0000000
F    1   1.00
      1.8500000              1.0000000
****
Al     0
S    6   1.00
  13983.1000000              0.00194267
   2098.7500000              0.0148599
    477.7050000              0.0728494
    134.3600000              0.2468300
     42.8709000              0.4872580
     14.5189000              0.3234960
SP   6   1.00
    239.6680000             -0.00292619             0.00460285
     57.4419000             -0.0374080              0.0331990
     18.2859000             -0.1144870              0.1362820
      6.5991400              0.1156350              0.3304760
      2.4904900              0.6125950              0.4491460
      0.9445400              0.3937990              0.2657040
SP   3   1.00
      1.2779000             -0.2276060             -0.0175130
      0.3975900              0.00144583             0.2445330
      0.1600950              1.0927900              0.8049340
SP   1   1.00
      0.0556577              1.0000000              1.0000000
D    1   1.00
      0.6500000              1.0000000
D    1   1.00
      0.1625000              1.0000000
F    1   1.00
      0.2500000              1.0000000
****
Si     0
S    6   1.00
  16115.9000000              0.00195948
   2425.5800000              0.01492880
    553.8670000              0.07284780
    156.3400000              0.24613000
     50.0683000              0.48591400
     17.0178000              0.32500200
SP   6   1.00
    292.7180000             -0.00278094             0.00443826
     69.8731000             -0.03571460             0.03266790
     22.3363000             -0.11498500             0.13472100
      8.1503900              0.09356340             0.32867800
      3.1345800              0.60301700             0.44964000
      1.2254300              0.41895900             0.26137200
SP   3   1.00
      1.7273800             -0.24463000            -0.01779510
      0.5729220              0.00431572             0.25353900
      0.2221920              1.09818000             0.80066900
SP   1   1.00
      0.0778369              1.00000000             1.00000000
D    1   1.00
      0.9000000              1.0000000
D    1   1.00
      0.2250000              1.0000000
F    1   1.00
      0.3200000              1.0000000
****
P     0
S    6   1.00
  19413.3000000              0.0018516
   2909.4200000              0.0142062
    661.3640000              0.0699995
    185.7590000              0.2400790
     59.1943000              0.4847620
     20.0310000              0.3352000
SP   6   1.00
    339.4780000             -0.00278217             0.00456462
     81.0101000             -0.0360499              0.03369360
     25.8780000             -0.1166310              0.13975500
      9.4522100              0.0968328              0.33936200
      3.6656600              0.6144180              0.45092100
      1.4674600              0.4037980              0.23858600
SP   3   1.00
      2.1562300             -0.2529230             -0.01776530
      0.7489970              0.0328517              0.27405800
      0.2831450              1.0812500              0.78542100
SP   1   1.00
      0.0998317              1.0000000              1.00000000
D    1   1.00
      1.1000000              1.0000000
D    1   1.00
      0.2750000              1.0000000
F    1   1.00
      0.4500000              1.0000000
****
S     0
S    6   1.00
  21917.1000000              0.0018690
   3301.4900000              0.0142300
    754.1460000              0.0696960
    212.7110000              0.2384870
     67.9896000              0.4833070
     23.0515000              0.3380740
SP   6   1.00
    423.7350000             -0.0023767              0.0040610
    100.7100000             -0.0316930              0.0306810
     32.1599000             -0.1133170              0.1304520
     11.8079000              0.0560900              0.3272050
      4.6311000              0.5922550              0.4528510
      1.8702500              0.4550060              0.2560420
SP   3   1.00
      2.6158400             -0.2503740             -0.0145110
      0.9221670              0.0669570              0.3102630
      0.3412870              1.0545100              0.7544830
SP   1   1.00
      0.1171670              1.0000000              1.0000000
D    1   1.00
      1.3000000              1.0000000
D    1   1.00
      0.3250000              1.0000000
F    1   1.00
      0.5500000              1.0000000
****
Cl     0
S    6   1.00
  25180.1000000              0.0018330
   3780.3500000              0.0140340
    860.4740000              0.0690970
    242.1450000              0.2374520
     77.3349000              0.4830340
     26.2470000              0.3398560
SP   6   1.00
    491.7650000             -0.0022974              0.0039894
    116.9840000             -0.0307140              0.0303180
     37.4153000             -0.1125280              0.1298800
     13.7834000              0.0450160              0.3279510
      5.4521500              0.5893530              0.4535270
      2.2258800              0.4652060              0.2521540
SP   3   1.00
      3.1864900             -0.2518300             -0.0142990
      1.1442700              0.0615890              0.3235720
      0.4203770              1.0601800              0.7435070
SP   1   1.00
      0.1426570              1.0000000              1.0000000
D    1   1.00
      1.5000000              1.0000000
D    1   1.00
      0.3750000              1.0000000
F    1   1.00
      0.7000000              1.0000000
****
}

set {
reference uhf
freeze_core true
e_convergence 10
d_convergence 10
dft_spherical_points 1202
dft_radial_points 99
}

e = energy('b3lyp')

print_out('Grab this energy {0}'.format(e))
--------------------------------------------------------------------------

    Molecular point group: c1

    Geometry (in Bohr), charge = 0, multiplicity = 2:

       Center              X                  Y                   Z               Mass
    ------------   -----------------  -----------------  -----------------  -----------------
         C           -0.005479192695    -1.354405486465    -0.001023918869    12.000000000000
         C           -0.019372024295     1.465500977035     0.002417793031    12.000000000000
         H            1.928149480305    -2.111684552065    -0.002987848969     1.007825032230
         H           -0.944827124895    -2.115503483265     1.669494651931     1.007825032230
         H           -0.943831016595    -2.116700171165    -1.674978103669     1.007825032230
         H            0.128035695905     2.511172152235    -1.753560732569     1.007825032230
         H            0.128372148505     2.509921080735     1.745435412431     1.007825032230

  Charge       = 0
  Multiplicity = 2
  Basis Set: ANONYMOUS39C2CEA0
    Blend: 6-31G_2DFP_
  Basis Set: (ANONYMOUS39C2CEA0 AUX)
    Blend: DEF2-UNIVERSAL-JKFIT

    Orbital Energies [Eh]
    ---------------------

    Alpha Occupied:

       1A    -10.179496     2A    -10.174203     3A     -0.751521
       4A     -0.604989     5A     -0.446250     6A     -0.410541
       7A     -0.385238     8A     -0.354252     9A     -0.197351

    Alpha Virtual:

      10A      0.099038    11A      0.127974    12A      0.141012
      13A      0.165738    14A      0.203279    15A      0.247205
      16A      0.430325    17A      0.440641    18A      0.446281
      19A      0.449975    20A      0.478615    21A      0.520925
      22A      0.543842    23A      0.574243    24A      0.594057
      25A      0.618763    26A      0.634001    27A      0.639743
      28A      0.650186    29A      0.741259    30A      0.822594
      31A      0.865881    32A      0.931178    33A      0.977120
      34A      1.024912    35A      1.071470    36A      1.083545
      37A      1.085798    38A      1.179920    39A      1.220474
      40A      1.253718    41A      1.323496    42A      1.344795
      43A      1.367496    44A      1.420198    45A      1.445778
      46A      1.509801    47A      1.524281    48A      1.603372
      49A      1.764466    50A      1.806680    51A      1.952095
      52A      2.049962    53A      2.103134    54A      2.698316
      55A      2.801149    56A      2.828884    57A      2.860492
      58A      2.928782    59A      2.963055    60A      2.986528
      61A      3.080180    62A      3.093295    63A      3.158740
      64A      3.170698    65A      3.199067    66A      3.300443
      67A      3.358199    68A      3.390135    69A      3.494011
      70A      3.499517    71A      3.581059    72A      3.594554
      73A      3.712315    74A      3.806627    75A      3.973704
      76A      4.023694    77A      4.088097    78A      4.129306
      79A      4.189436    80A      4.198269    81A      4.205179
      82A      4.294625    83A      4.368861    84A      4.489969
      85A      4.501021    86A      4.527240    87A      4.864985
      88A      4.924460    89A      5.145059    90A      5.170321
      91A      5.279039    92A      5.329182

    Beta Occupied:

       1A    -10.175023     2A    -10.165553     3A     -0.734870
       4A     -0.580368     5A     -0.440104     6A     -0.395884
       7A     -0.377307     8A     -0.349798

    Beta Virtual:

       9A     -0.036076    10A      0.101690    11A      0.139124
      12A      0.142650    13A      0.170573    14A      0.206878
      15A      0.252951    16A      0.441642    17A      0.445077
      18A      0.455679    19A      0.459253    20A      0.487435
      21A      0.549106    22A      0.587702    23A      0.592389
      24A      0.602804    25A      0.624060    26A      0.641911
      27A      0.645473    28A      0.657633    29A      0.766624
      30A      0.822383    31A      0.868913    32A      0.948851
      33A      0.988306    34A      1.033526    35A      1.079449
      36A      1.088954    37A      1.102409    38A      1.183548
      39A      1.228211    40A      1.266076    41A      1.330054
      42A      1.352286    43A      1.373821    44A      1.426160
      45A      1.453254    46A      1.514439    47A      1.535469
      48A      1.614539    49A      1.771003    50A      1.812897
      51A      1.956528    52A      2.059908    53A      2.108646
      54A      2.721551    55A      2.822976    56A      2.830781
      57A      2.876542    58A      2.931313    59A      2.989858
      60A      3.023326    61A      3.093577    62A      3.120570
      63A      3.176472    64A      3.210802    65A      3.218051
      66A      3.339176    67A      3.370719    68A      3.408777
      69A      3.519442    70A      3.536982    71A      3.597777
      72A      3.604716    73A      3.730489    74A      3.806941
      75A      3.984302    76A      4.032935    77A      4.094521
      78A      4.138798    79A      4.202778    80A      4.204092
      81A      4.214481    82A      4.302605    83A      4.373110
      84A      4.496931    85A      4.511640    86A      4.534515
      87A      4.866339    88A      4.928758    89A      5.148710
      90A      5.180878    91A      5.286152    92A      5.331723

    Final Occupation by Irrep:
              A
    DOCC [     8 ]
    SOCC [     1 ]

  @DF-UKS Final Energy:   -79.16615393855061

   => Energetics <=

    Nuclear Repulsion Energy =             36.9298544383778093
    One-Electron Energy =                -178.0725947714089443
    Two-Electron Energy =                  72.2578306348763277
    DFT Exchange-Correlation Energy =     -10.2812442403958038
    Empirical Dispersion Energy =           0.0000000000000000
    VV10 Nonlocal Energy =                  0.0000000000000000
    Total Energy =                        -79.1661539385506074

  UHF NO Occupations:
  HONO-2 :    7  A 1.9997315
  HONO-1 :    8  A 1.9987092
  HONO-0 :    9  A 1.0000000
  LUNO+0 :   10  A 0.0012908
  LUNO+1 :   11  A 0.0002685
  LUNO+2 :   12  A 0.0002502
  LUNO+3 :   13  A 0.0002221

Computation Completed

Properties will be evaluated at   0.000000,   0.000000,   0.000000 [a0]

Properties computed using the SCF density matrix

  Nuclear Dipole Moment: [e a0]
     X:     0.1468      Y:    -0.6562      Z:    -0.0082

  Electronic Dipole Moment: [e a0]
     X:    -0.1042      Y:     0.5712      Z:     0.0093

  Dipole Moment: [e a0]
     X:     0.0426      Y:    -0.0850      Z:     0.0011     Total:     0.0951

  Dipole Moment: [D]
     X:     0.1082      Y:    -0.2161      Z:     0.0027     Total:     0.2417

*** tstop() called on n070 at Fri Nov  5 19:02:43 2021
Module time:
	user time   =      51.22 seconds =       0.85 minutes
	system time =       0.66 seconds =       0.01 minutes
	total time  =         52 seconds =       0.87 minutes
Total time:
	user time   =      51.22 seconds =       0.85 minutes
	system time =       0.66 seconds =       0.01 minutes
	total time  =         52 seconds =       0.87 minutes
Grab this energy -79.16615393855061
    Psi4 stopped on: Friday, 05 November 2021 07:02PM
    Psi4 wall time for execution: 0:00:51.95

*** Psi4 exiting successfully. Buy a developer a beer!
