                               Psi4 1.4a2.dev629

  ==> Input File <==

--------------------------------------------------------------------------
import os
memory 14 GB

molecule {
 C   -0.0068333010   -1.3543920459    0.0009626829
 C   -0.0176537187    1.4654674678   -0.0009515917
 H    1.9282513926   -2.1116276847    0.0022659842
 H   -0.9439738353   -2.1224111855    1.6742072766
 H   -0.9440819449   -2.1098725715   -1.6704591010
 H    0.1277035572    2.5133091516   -1.7525332042
 H    0.1276404265    2.5078366004    1.7465079533
units bohr
0 2
}

basis {

assign 6-31g_2dfp_

[ 6-31g_2dfp_ ]

spherical

!----------------------------------------------------------------------
! Basis Set Exchange
! Version v0.8.13
! https://www.basissetexchange.org
!----------------------------------------------------------------------
!   Basis set: 6-31G(2df,p)
! Description: 6-31G(2df,p)
!        Role: orbital
!     Version: 0  (Data from the original Basis Set Exchange)
!----------------------------------------------------------------------

****
H     0
S    3   1.00
     18.7311370              0.03349460
      2.8253937              0.23472695
      0.6401217              0.81375733
S    1   1.00
      0.1612778              1.00000000
P    1   1.00
      1.5000000              1.0000000
P    1   1.00
      0.3750000              1.0000000
****
B     0
S    6   1.00
   2068.8823000              0.0018663
    310.6495700              0.0142515
     70.6830330              0.0695516
     19.8610800              0.2325729
      6.2993048              0.4670787
      2.1270270              0.3634314
SP   3   1.00
      4.7279710             -0.1303938              0.0745976
      1.1903377             -0.1307889              0.3078467
      0.3594117              1.1309444              0.7434568
SP   1   1.00
      0.1267512              1.0000000              1.0000000
D    1   1.00
      0.8020000              1.0000000
D    1   1.00
      0.2005000              1.0000000
F    1   1.00
      0.5000000              1.0000000
****
C     0
S    6   1.00
   3047.5249000              0.0018347
    457.3695100              0.0140373
    103.9486900              0.0688426
     29.2101550              0.2321844
      9.2866630              0.4679413
      3.1639270              0.3623120
SP   3   1.00
      7.8682724             -0.1193324              0.0689991
      1.8812885             -0.1608542              0.3164240
      0.5442493              1.1434564              0.7443083
SP   1   1.00
      0.1687144              1.0000000              1.0000000
D    1   1.00
      1.2520000              1.0000000
D    1   1.00
      0.3130000              1.0000000
F    1   1.00
      0.8000000              1.0000000
****
N     0
S    6   1.00
   4173.5110000              0.0018348
    627.4579000              0.0139950
    142.9021000              0.0685870
     40.2343300              0.2322410
     12.8202100              0.4690700
      4.3904370              0.3604550
SP   3   1.00
     11.6263580             -0.1149610              0.0675800
      2.7162800             -0.1691180              0.3239070
      0.7722180              1.1458520              0.7408950
SP   1   1.00
      0.2120313              1.0000000              1.0000000
D    1   1.00
      1.8260000              1.0000000
D    1   1.00
      0.4565000              1.0000000
F    1   1.00
      1.0000000              1.0000000
****
O     0
S    6   1.00
   5484.6717000              0.0018311
    825.2349500              0.0139501
    188.0469600              0.0684451
     52.9645000              0.2327143
     16.8975700              0.4701930
      5.7996353              0.3585209
SP   3   1.00
     15.5396160             -0.1107775              0.0708743
      3.5999336             -0.1480263              0.3397528
      1.0137618              1.1307670              0.7271586
SP   1   1.00
      0.2700058              1.0000000              1.0000000
D    1   1.00
      2.5840000              1.0000000
D    1   1.00
      0.6460000              1.0000000
F    1   1.00
      1.4000000              1.0000000
****
F     0
S    6   1.00
   7001.7130900              0.0018196169
   1051.3660900              0.0139160796
    239.2856900              0.0684053245
     67.3974453              0.233185760
     21.5199573              0.471267439
      7.40310130             0.356618546
SP   3   1.00
     20.8479528             -0.108506975            0.0716287243
      4.80830834            -0.146451658            0.3459121030
      1.34406986             1.128688580            0.7224699570
SP   1   1.00
      0.358151393            1.0000000              1.0000000
D    1   1.00
      3.5000000              1.0000000
D    1   1.00
      0.8750000              1.0000000
F    1   1.00
      1.8500000              1.0000000
****
Al     0
S    6   1.00
  13983.1000000              0.00194267
   2098.7500000              0.0148599
    477.7050000              0.0728494
    134.3600000              0.2468300
     42.8709000              0.4872580
     14.5189000              0.3234960
SP   6   1.00
    239.6680000             -0.00292619             0.00460285
     57.4419000             -0.0374080              0.0331990
     18.2859000             -0.1144870              0.1362820
      6.5991400              0.1156350              0.3304760
      2.4904900              0.6125950              0.4491460
      0.9445400              0.3937990              0.2657040
SP   3   1.00
      1.2779000             -0.2276060             -0.0175130
      0.3975900              0.00144583             0.2445330
      0.1600950              1.0927900              0.8049340
SP   1   1.00
      0.0556577              1.0000000              1.0000000
D    1   1.00
      0.6500000              1.0000000
D    1   1.00
      0.1625000              1.0000000
F    1   1.00
      0.2500000              1.0000000
****
Si     0
S    6   1.00
  16115.9000000              0.00195948
   2425.5800000              0.01492880
    553.8670000              0.07284780
    156.3400000              0.24613000
     50.0683000              0.48591400
     17.0178000              0.32500200
SP   6   1.00
    292.7180000             -0.00278094             0.00443826
     69.8731000             -0.03571460             0.03266790
     22.3363000             -0.11498500             0.13472100
      8.1503900              0.09356340             0.32867800
      3.1345800              0.60301700             0.44964000
      1.2254300              0.41895900             0.26137200
SP   3   1.00
      1.7273800             -0.24463000            -0.01779510
      0.5729220              0.00431572             0.25353900
      0.2221920              1.09818000             0.80066900
SP   1   1.00
      0.0778369              1.00000000             1.00000000
D    1   1.00
      0.9000000              1.0000000
D    1   1.00
      0.2250000              1.0000000
F    1   1.00
      0.3200000              1.0000000
****
P     0
S    6   1.00
  19413.3000000              0.0018516
   2909.4200000              0.0142062
    661.3640000              0.0699995
    185.7590000              0.2400790
     59.1943000              0.4847620
     20.0310000              0.3352000
SP   6   1.00
    339.4780000             -0.00278217             0.00456462
     81.0101000             -0.0360499              0.03369360
     25.8780000             -0.1166310              0.13975500
      9.4522100              0.0968328              0.33936200
      3.6656600              0.6144180              0.45092100
      1.4674600              0.4037980              0.23858600
SP   3   1.00
      2.1562300             -0.2529230             -0.01776530
      0.7489970              0.0328517              0.27405800
      0.2831450              1.0812500              0.78542100
SP   1   1.00
      0.0998317              1.0000000              1.00000000
D    1   1.00
      1.1000000              1.0000000
D    1   1.00
      0.2750000              1.0000000
F    1   1.00
      0.4500000              1.0000000
****
S     0
S    6   1.00
  21917.1000000              0.0018690
   3301.4900000              0.0142300
    754.1460000              0.0696960
    212.7110000              0.2384870
     67.9896000              0.4833070
     23.0515000              0.3380740
SP   6   1.00
    423.7350000             -0.0023767              0.0040610
    100.7100000             -0.0316930              0.0306810
     32.1599000             -0.1133170              0.1304520
     11.8079000              0.0560900              0.3272050
      4.6311000              0.5922550              0.4528510
      1.8702500              0.4550060              0.2560420
SP   3   1.00
      2.6158400             -0.2503740             -0.0145110
      0.9221670              0.0669570              0.3102630
      0.3412870              1.0545100              0.7544830
SP   1   1.00
      0.1171670              1.0000000              1.0000000
D    1   1.00
      1.3000000              1.0000000
D    1   1.00
      0.3250000              1.0000000
F    1   1.00
      0.5500000              1.0000000
****
Cl     0
S    6   1.00
  25180.1000000              0.0018330
   3780.3500000              0.0140340
    860.4740000              0.0690970
    242.1450000              0.2374520
     77.3349000              0.4830340
     26.2470000              0.3398560
SP   6   1.00
    491.7650000             -0.0022974              0.0039894
    116.9840000             -0.0307140              0.0303180
     37.4153000             -0.1125280              0.1298800
     13.7834000              0.0450160              0.3279510
      5.4521500              0.5893530              0.4535270
      2.2258800              0.4652060              0.2521540
SP   3   1.00
      3.1864900             -0.2518300             -0.0142990
      1.1442700              0.0615890              0.3235720
      0.4203770              1.0601800              0.7435070
SP   1   1.00
      0.1426570              1.0000000              1.0000000
D    1   1.00
      1.5000000              1.0000000
D    1   1.00
      0.3750000              1.0000000
F    1   1.00
      0.7000000              1.0000000
****
}

set {
reference uhf
freeze_core true
e_convergence 10
d_convergence 10
dft_spherical_points 1202
dft_radial_points 99
}

e = energy('b3lyp')

print_out('Grab this energy {0}'.format(e))
--------------------------------------------------------------------------

    Molecular point group: c1

    Geometry (in Bohr), charge = 0, multiplicity = 2:

       Center              X                  Y                   Z               Mass
    ------------   -----------------  -----------------  -----------------  -----------------
         C           -0.006971320535    -1.354384769129     0.000958484547    12.000000000000
         C           -0.017791738235     1.465474744571    -0.000955790053    12.000000000000
         H            1.928113373065    -2.111620407929     0.002261785847     1.007825032230
         H           -0.944111854835    -2.122403908729     1.674203078247     1.007825032230
         H           -0.944219964435    -2.109865294729    -1.670463299353     1.007825032230
         H            0.127565537665     2.513316428371    -1.752537402553     1.007825032230
         H            0.127502406965     2.507843877171     1.746503754947     1.007825032230

  Charge       = 0
  Multiplicity = 2
  Basis Set: ANONYMOUSE77FB660
    Blend: 6-31G_2DFP_
  Basis Set: (ANONYMOUSE77FB660 AUX)
    Blend: DEF2-UNIVERSAL-JKFIT

    Orbital Energies [Eh]
    ---------------------

    Alpha Occupied:

       1A    -10.179458     2A    -10.174208     3A     -0.751520
       4A     -0.604987     5A     -0.446329     6A     -0.410364
       7A     -0.385272     8A     -0.354382     9A     -0.197261

    Alpha Virtual:

      10A      0.099052    11A      0.127923    12A      0.141058
      13A      0.165623    14A      0.203427    15A      0.247275
      16A      0.430363    17A      0.440596    18A      0.446251
      19A      0.449992    20A      0.478569    21A      0.521003
      22A      0.543773    23A      0.574331    24A      0.594119
      25A      0.618801    26A      0.633709    27A      0.639964
      28A      0.650272    29A      0.741312    30A      0.822584
      31A      0.865863    32A      0.931182    33A      0.977414
      34A      1.025060    35A      1.071586    36A      1.083643
      37A      1.085422    38A      1.179428    39A      1.220130
      40A      1.253430    41A      1.323790    42A      1.345200
      43A      1.366952    44A      1.420068    45A      1.446091
      46A      1.510084    47A      1.524469    48A      1.603633
      49A      1.764254    50A      1.807066    51A      1.952613
      52A      2.050222    53A      2.103322    54A      2.698176
      55A      2.801079    56A      2.829118    57A      2.860646
      58A      2.928647    59A      2.963650    60A      2.986042
      61A      3.079988    62A      3.093574    63A      3.159069
      64A      3.170392    65A      3.199314    66A      3.300003
      67A      3.357680    68A      3.390494    69A      3.494277
      70A      3.499315    71A      3.581374    72A      3.593858
      73A      3.712805    74A      3.806401    75A      3.974476
      76A      4.023307    77A      4.088224    78A      4.129320
      79A      4.189373    80A      4.198543    81A      4.205409
      82A      4.294508    83A      4.369097    84A      4.489190
      85A      4.500231    86A      4.527880    87A      4.866280
      88A      4.924412    89A      5.146194    90A      5.169293
      91A      5.279391    92A      5.329517

    Beta Occupied:

       1A    -10.175029     2A    -10.165518     3A     -0.734871
       4A     -0.580363     5A     -0.440192     6A     -0.395697
       7A     -0.377329     8A     -0.349923

    Beta Virtual:

       9A     -0.036022    10A      0.101704    11A      0.139062
      12A      0.142722    13A      0.170462    14A      0.207008
      15A      0.253017    16A      0.441654    17A      0.445039
      18A      0.455678    19A      0.459300    20A      0.487353
      21A      0.549060    22A      0.587838    23A      0.592472
      24A      0.602849    25A      0.624079    26A      0.641685
      27A      0.645663    28A      0.657670    29A      0.766654
      30A      0.822374    31A      0.868899    32A      0.948816
      33A      0.988642    34A      1.033652    35A      1.079577
      36A      1.089022    37A      1.102132    38A      1.183070
      39A      1.227869    40A      1.265753    41A      1.330321
      42A      1.352638    43A      1.373331    44A      1.426022
      45A      1.453570    46A      1.514663    47A      1.535722
      48A      1.614800    49A      1.770808    50A      1.813263
      51A      1.957015    52A      2.060192    53A      2.108807
      54A      2.721421    55A      2.822759    56A      2.831073
      57A      2.876788    58A      2.931185    59A      2.990399
      60A      3.022904    61A      3.093325    62A      3.120853
      63A      3.176889    64A      3.210428    65A      3.218286
      66A      3.338712    67A      3.370574    68A      3.408853
      69A      3.519377    70A      3.537165    71A      3.597846
      72A      3.604135    73A      3.730976    74A      3.806776
      75A      3.984862    76A      4.032747    77A      4.094636
      78A      4.138778    79A      4.202798    80A      4.204325
      81A      4.214728    82A      4.302485    83A      4.373370
      84A      4.496114    85A      4.510872    86A      4.535117
      87A      4.867629    88A      4.928732    89A      5.149593
      90A      5.180085    91A      5.286500    92A      5.332052

    Final Occupation by Irrep:
              A
    DOCC [     8 ]
    SOCC [     1 ]

  @DF-UKS Final Energy:   -79.16615940775444

   => Energetics <=

    Nuclear Repulsion Energy =             36.9304148105441854
    One-Electron Energy =                -178.0737544301084938
    Two-Electron Energy =                  72.2584515813273924
    DFT Exchange-Correlation Energy =     -10.2812713695175226
    Empirical Dispersion Energy =           0.0000000000000000
    VV10 Nonlocal Energy =                  0.0000000000000000
    Total Energy =                        -79.1661594077544351

  UHF NO Occupations:
  HONO-2 :    7  A 1.9997317
  HONO-1 :    8  A 1.9987082
  HONO-0 :    9  A 1.0000000
  LUNO+0 :   10  A 0.0012918
  LUNO+1 :   11  A 0.0002683
  LUNO+2 :   12  A 0.0002513
  LUNO+3 :   13  A 0.0002221

Computation Completed

Properties will be evaluated at   0.000000,   0.000000,   0.000000 [a0]

Properties computed using the SCF density matrix

  Nuclear Dipole Moment: [e a0]
     X:     0.1463      Y:    -0.6562      Z:    -0.0000

  Electronic Dipole Moment: [e a0]
     X:    -0.1046      Y:     0.5712      Z:    -0.0002

  Dipole Moment: [e a0]
     X:     0.0417      Y:    -0.0850      Z:    -0.0003     Total:     0.0947

  Dipole Moment: [D]
     X:     0.1060      Y:    -0.2161      Z:    -0.0007     Total:     0.2407

*** tstop() called on n044 at Fri Nov  5 16:52:21 2021
Module time:
	user time   =      61.77 seconds =       1.03 minutes
	system time =       0.46 seconds =       0.01 minutes
	total time  =         63 seconds =       1.05 minutes
Total time:
	user time   =      61.77 seconds =       1.03 minutes
	system time =       0.46 seconds =       0.01 minutes
	total time  =         63 seconds =       1.05 minutes
Grab this energy -79.16615940775444
    Psi4 stopped on: Friday, 05 November 2021 04:52PM
    Psi4 wall time for execution: 0:01:02.28

*** Psi4 exiting successfully. Buy a developer a beer!
