                               Psi4 1.4a2.dev629

  ==> Input File <==

--------------------------------------------------------------------------
import os
memory 14 GB

molecule {
 C   -0.0054529460   -1.3545368577    0.0002021927
 C   -0.0196329437    1.4666077466    0.0037669270
 H    1.9286931235   -2.1126079883   -0.0011350800
 H   -0.9436879037   -2.1215721889    1.6709680366
 H   -0.9451483039   -2.1109127521   -1.6743512113
 H    0.1285522055    2.5009469711   -1.7564950942
 H    0.1277293448    2.5203848016    1.7570442292
units bohr
0 2
}

basis {

assign 6-31g_2dfp_

[ 6-31g_2dfp_ ]

spherical

!----------------------------------------------------------------------
! Basis Set Exchange
! Version v0.8.13
! https://www.basissetexchange.org
!----------------------------------------------------------------------
!   Basis set: 6-31G(2df,p)
! Description: 6-31G(2df,p)
!        Role: orbital
!     Version: 0  (Data from the original Basis Set Exchange)
!----------------------------------------------------------------------

****
H     0
S    3   1.00
     18.7311370              0.03349460
      2.8253937              0.23472695
      0.6401217              0.81375733
S    1   1.00
      0.1612778              1.00000000
P    1   1.00
      1.5000000              1.0000000
P    1   1.00
      0.3750000              1.0000000
****
B     0
S    6   1.00
   2068.8823000              0.0018663
    310.6495700              0.0142515
     70.6830330              0.0695516
     19.8610800              0.2325729
      6.2993048              0.4670787
      2.1270270              0.3634314
SP   3   1.00
      4.7279710             -0.1303938              0.0745976
      1.1903377             -0.1307889              0.3078467
      0.3594117              1.1309444              0.7434568
SP   1   1.00
      0.1267512              1.0000000              1.0000000
D    1   1.00
      0.8020000              1.0000000
D    1   1.00
      0.2005000              1.0000000
F    1   1.00
      0.5000000              1.0000000
****
C     0
S    6   1.00
   3047.5249000              0.0018347
    457.3695100              0.0140373
    103.9486900              0.0688426
     29.2101550              0.2321844
      9.2866630              0.4679413
      3.1639270              0.3623120
SP   3   1.00
      7.8682724             -0.1193324              0.0689991
      1.8812885             -0.1608542              0.3164240
      0.5442493              1.1434564              0.7443083
SP   1   1.00
      0.1687144              1.0000000              1.0000000
D    1   1.00
      1.2520000              1.0000000
D    1   1.00
      0.3130000              1.0000000
F    1   1.00
      0.8000000              1.0000000
****
N     0
S    6   1.00
   4173.5110000              0.0018348
    627.4579000              0.0139950
    142.9021000              0.0685870
     40.2343300              0.2322410
     12.8202100              0.4690700
      4.3904370              0.3604550
SP   3   1.00
     11.6263580             -0.1149610              0.0675800
      2.7162800             -0.1691180              0.3239070
      0.7722180              1.1458520              0.7408950
SP   1   1.00
      0.2120313              1.0000000              1.0000000
D    1   1.00
      1.8260000              1.0000000
D    1   1.00
      0.4565000              1.0000000
F    1   1.00
      1.0000000              1.0000000
****
O     0
S    6   1.00
   5484.6717000              0.0018311
    825.2349500              0.0139501
    188.0469600              0.0684451
     52.9645000              0.2327143
     16.8975700              0.4701930
      5.7996353              0.3585209
SP   3   1.00
     15.5396160             -0.1107775              0.0708743
      3.5999336             -0.1480263              0.3397528
      1.0137618              1.1307670              0.7271586
SP   1   1.00
      0.2700058              1.0000000              1.0000000
D    1   1.00
      2.5840000              1.0000000
D    1   1.00
      0.6460000              1.0000000
F    1   1.00
      1.4000000              1.0000000
****
F     0
S    6   1.00
   7001.7130900              0.0018196169
   1051.3660900              0.0139160796
    239.2856900              0.0684053245
     67.3974453              0.233185760
     21.5199573              0.471267439
      7.40310130             0.356618546
SP   3   1.00
     20.8479528             -0.108506975            0.0716287243
      4.80830834            -0.146451658            0.3459121030
      1.34406986             1.128688580            0.7224699570
SP   1   1.00
      0.358151393            1.0000000              1.0000000
D    1   1.00
      3.5000000              1.0000000
D    1   1.00
      0.8750000              1.0000000
F    1   1.00
      1.8500000              1.0000000
****
Al     0
S    6   1.00
  13983.1000000              0.00194267
   2098.7500000              0.0148599
    477.7050000              0.0728494
    134.3600000              0.2468300
     42.8709000              0.4872580
     14.5189000              0.3234960
SP   6   1.00
    239.6680000             -0.00292619             0.00460285
     57.4419000             -0.0374080              0.0331990
     18.2859000             -0.1144870              0.1362820
      6.5991400              0.1156350              0.3304760
      2.4904900              0.6125950              0.4491460
      0.9445400              0.3937990              0.2657040
SP   3   1.00
      1.2779000             -0.2276060             -0.0175130
      0.3975900              0.00144583             0.2445330
      0.1600950              1.0927900              0.8049340
SP   1   1.00
      0.0556577              1.0000000              1.0000000
D    1   1.00
      0.6500000              1.0000000
D    1   1.00
      0.1625000              1.0000000
F    1   1.00
      0.2500000              1.0000000
****
Si     0
S    6   1.00
  16115.9000000              0.00195948
   2425.5800000              0.01492880
    553.8670000              0.07284780
    156.3400000              0.24613000
     50.0683000              0.48591400
     17.0178000              0.32500200
SP   6   1.00
    292.7180000             -0.00278094             0.00443826
     69.8731000             -0.03571460             0.03266790
     22.3363000             -0.11498500             0.13472100
      8.1503900              0.09356340             0.32867800
      3.1345800              0.60301700             0.44964000
      1.2254300              0.41895900             0.26137200
SP   3   1.00
      1.7273800             -0.24463000            -0.01779510
      0.5729220              0.00431572             0.25353900
      0.2221920              1.09818000             0.80066900
SP   1   1.00
      0.0778369              1.00000000             1.00000000
D    1   1.00
      0.9000000              1.0000000
D    1   1.00
      0.2250000              1.0000000
F    1   1.00
      0.3200000              1.0000000
****
P     0
S    6   1.00
  19413.3000000              0.0018516
   2909.4200000              0.0142062
    661.3640000              0.0699995
    185.7590000              0.2400790
     59.1943000              0.4847620
     20.0310000              0.3352000
SP   6   1.00
    339.4780000             -0.00278217             0.00456462
     81.0101000             -0.0360499              0.03369360
     25.8780000             -0.1166310              0.13975500
      9.4522100              0.0968328              0.33936200
      3.6656600              0.6144180              0.45092100
      1.4674600              0.4037980              0.23858600
SP   3   1.00
      2.1562300             -0.2529230             -0.01776530
      0.7489970              0.0328517              0.27405800
      0.2831450              1.0812500              0.78542100
SP   1   1.00
      0.0998317              1.0000000              1.00000000
D    1   1.00
      1.1000000              1.0000000
D    1   1.00
      0.2750000              1.0000000
F    1   1.00
      0.4500000              1.0000000
****
S     0
S    6   1.00
  21917.1000000              0.0018690
   3301.4900000              0.0142300
    754.1460000              0.0696960
    212.7110000              0.2384870
     67.9896000              0.4833070
     23.0515000              0.3380740
SP   6   1.00
    423.7350000             -0.0023767              0.0040610
    100.7100000             -0.0316930              0.0306810
     32.1599000             -0.1133170              0.1304520
     11.8079000              0.0560900              0.3272050
      4.6311000              0.5922550              0.4528510
      1.8702500              0.4550060              0.2560420
SP   3   1.00
      2.6158400             -0.2503740             -0.0145110
      0.9221670              0.0669570              0.3102630
      0.3412870              1.0545100              0.7544830
SP   1   1.00
      0.1171670              1.0000000              1.0000000
D    1   1.00
      1.3000000              1.0000000
D    1   1.00
      0.3250000              1.0000000
F    1   1.00
      0.5500000              1.0000000
****
Cl     0
S    6   1.00
  25180.1000000              0.0018330
   3780.3500000              0.0140340
    860.4740000              0.0690970
    242.1450000              0.2374520
     77.3349000              0.4830340
     26.2470000              0.3398560
SP   6   1.00
    491.7650000             -0.0022974              0.0039894
    116.9840000             -0.0307140              0.0303180
     37.4153000             -0.1125280              0.1298800
     13.7834000              0.0450160              0.3279510
      5.4521500              0.5893530              0.4535270
      2.2258800              0.4652060              0.2521540
SP   3   1.00
      3.1864900             -0.2518300             -0.0142990
      1.1442700              0.0615890              0.3235720
      0.4203770              1.0601800              0.7435070
SP   1   1.00
      0.1426570              1.0000000              1.0000000
D    1   1.00
      1.5000000              1.0000000
D    1   1.00
      0.3750000              1.0000000
F    1   1.00
      0.7000000              1.0000000
****
}

set {
reference uhf
freeze_core true
e_convergence 10
d_convergence 10
dft_spherical_points 1202
dft_radial_points 99
}

e = energy('b3lyp')

print_out('Grab this energy {0}'.format(e))
--------------------------------------------------------------------------

    Molecular point group: c1

    Geometry (in Bohr), charge = 0, multiplicity = 2:

       Center              X                  Y                   Z               Mass
    ------------   -----------------  -----------------  -----------------  -----------------
         C           -0.005364275383    -1.354906394882    -0.001300237486    12.000000000000
         C           -0.019544273083     1.466238209418     0.002264496814    12.000000000000
         H            1.928781794117    -2.112977525482    -0.002637510186     1.007825032230
         H           -0.943599233083    -2.121941726082     1.669465606414     1.007825032230
         H           -0.945059633283    -2.111282289282    -1.675853641486     1.007825032230
         H            0.128640876117     2.500577433918    -1.757997524386     1.007825032230
         H            0.127818015417     2.520015264418     1.755541799014     1.007825032230

  Charge       = 0
  Multiplicity = 2
  Basis Set: ANONYMOUS95CC52F6
    Blend: 6-31G_2DFP_
  Basis Set: (ANONYMOUS95CC52F6 AUX)
    Blend: DEF2-UNIVERSAL-JKFIT

    Orbital Energies [Eh]
    ---------------------

    Alpha Occupied:

       1A    -10.180183     2A    -10.174314     3A     -0.751245
       4A     -0.604416     5A     -0.446053     6A     -0.410411
       7A     -0.384777     8A     -0.354152     9A     -0.197414

    Alpha Virtual:

      10A      0.098734    11A      0.127440    12A      0.140676
      13A      0.165664    14A      0.202869    15A      0.246731
      16A      0.430198    17A      0.440531    18A      0.446237
      19A      0.450011    20A      0.478419    21A      0.520879
      22A      0.543647    23A      0.573632    24A      0.593210
      25A      0.618321    26A      0.633693    27A      0.639489
      28A      0.649167    29A      0.741199    30A      0.821495
      31A      0.865767    32A      0.930928    33A      0.975453
      34A      1.024700    35A      1.069998    36A      1.082411
      37A      1.086052    38A      1.179916    39A      1.220334
      40A      1.253139    41A      1.322837    42A      1.344266
      43A      1.367099    44A      1.419480    45A      1.445286
      46A      1.508059    47A      1.523322    48A      1.599852
      49A      1.762686    50A      1.805628    51A      1.951551
      52A      2.044468    53A      2.102195    54A      2.698103
      55A      2.800716    56A      2.827771    57A      2.860035
      58A      2.928570    59A      2.962152    60A      2.986157
      61A      3.080702    62A      3.094009    63A      3.159230
      64A      3.170492    65A      3.198575    66A      3.301877
      67A      3.356892    68A      3.390702    69A      3.493939
      70A      3.499568    71A      3.580165    72A      3.594081
      73A      3.710896    74A      3.806225    75A      3.972746
      76A      4.021782    77A      4.084167    78A      4.127734
      79A      4.183778    80A      4.197295    81A      4.204033
      82A      4.292822    83A      4.368063    84A      4.486899
      85A      4.499627    86A      4.525353    87A      4.857939
      88A      4.923641    89A      5.134931    90A      5.165705
      91A      5.277899    92A      5.326957

    Beta Occupied:

       1A    -10.175135     2A    -10.166229     3A     -0.734642
       4A     -0.579723     5A     -0.439935     6A     -0.395771
       7A     -0.376851     8A     -0.349710

    Beta Virtual:

       9A     -0.036091    10A      0.101479    11A      0.138602
      12A      0.142329    13A      0.170500    14A      0.206478
      15A      0.252493    16A      0.441579    17A      0.444962
      18A      0.455668    19A      0.459228    20A      0.487031
      21A      0.548912    22A      0.587103    23A      0.592322
      24A      0.602020    25A      0.623517    26A      0.641637
      27A      0.645079    28A      0.656598    29A      0.766663
      30A      0.821241    31A      0.868796    32A      0.948574
      33A      0.986628    34A      1.033317    35A      1.078137
      36A      1.089873    37A      1.100525    38A      1.183513
      39A      1.228068    40A      1.265510    41A      1.329452
      42A      1.351733    43A      1.373433    44A      1.425454
      45A      1.452749    46A      1.512614    47A      1.534366
      48A      1.611201    49A      1.769207    50A      1.811800
      51A      1.955982    52A      2.054310    53A      2.107701
      54A      2.721348    55A      2.822588    56A      2.829646
      57A      2.876092    58A      2.931121    59A      2.989184
      60A      3.022835    61A      3.094136    62A      3.120999
      63A      3.177078    64A      3.210736    65A      3.218317
      66A      3.339879    67A      3.369454    68A      3.408988
      69A      3.519835    70A      3.537154    71A      3.596720
      72A      3.604222    73A      3.729240    74A      3.806528
      75A      3.983573    76A      4.030184    77A      4.091158
      78A      4.137224    79A      4.198086    80A      4.202087
      81A      4.213280    82A      4.300724    83A      4.372279
      84A      4.493806    85A      4.510147    86A      4.532683
      87A      4.859260    88A      4.927935    89A      5.138211
      90A      5.176533    91A      5.284996    92A      5.329492

    Final Occupation by Irrep:
              A
    DOCC [     8 ]
    SOCC [     1 ]

  @DF-UKS Final Energy:   -79.16616124741196

   => Energetics <=

    Nuclear Repulsion Energy =             36.8996761391154493
    One-Electron Energy =                -178.0155946337502542
    Two-Electron Energy =                  72.2287686850323212
    DFT Exchange-Correlation Energy =     -10.2790114378094835
    Empirical Dispersion Energy =           0.0000000000000000
    VV10 Nonlocal Energy =                  0.0000000000000000
    Total Energy =                        -79.1661612474119636

  UHF NO Occupations:
  HONO-2 :    7  A 1.9997291
  HONO-1 :    8  A 1.9987017
  HONO-0 :    9  A 1.0000000
  LUNO+0 :   10  A 0.0012983
  LUNO+1 :   11  A 0.0002709
  LUNO+2 :   12  A 0.0002508
  LUNO+3 :   13  A 0.0002234

Computation Completed

Properties will be evaluated at   0.000000,   0.000000,   0.000000 [a0]

Properties computed using the SCF density matrix

  Nuclear Dipole Moment: [e a0]
     X:     0.1471      Y:    -0.6576      Z:    -0.0057

  Electronic Dipole Moment: [e a0]
     X:    -0.1047      Y:     0.5720      Z:     0.0051

  Dipole Moment: [e a0]
     X:     0.0425      Y:    -0.0856      Z:    -0.0006     Total:     0.0956

  Dipole Moment: [D]
     X:     0.1080      Y:    -0.2177      Z:    -0.0015     Total:     0.2430

*** tstop() called on n035 at Fri Nov  5 19:22:49 2021
Module time:
	user time   =      61.26 seconds =       1.02 minutes
	system time =       0.46 seconds =       0.01 minutes
	total time  =         61 seconds =       1.02 minutes
Total time:
	user time   =      61.26 seconds =       1.02 minutes
	system time =       0.46 seconds =       0.01 minutes
	total time  =         61 seconds =       1.02 minutes
Grab this energy -79.16616124741196
    Psi4 stopped on: Friday, 05 November 2021 07:22PM
    Psi4 wall time for execution: 0:01:01.77

*** Psi4 exiting successfully. Buy a developer a beer!
