                               Psi4 1.4a2.dev629

  ==> Input File <==

--------------------------------------------------------------------------
import os
memory 14 GB

molecule {
 C   -0.0037600404   -1.3555492034   -0.0000000000
 C   -0.0189672689    1.4653174349   -0.0000000000
 H    1.9171315158   -2.1110004640   -0.0000000000
 H   -0.9397916519   -2.1163229363    1.6716043118
 H   -0.9397916519   -2.1163229363   -1.6716043118
 H    0.1281158368    2.5110939187   -1.7500336534
 H    0.1281158368    2.5110939187    1.7500336534
units bohr
0 2
}

basis {

assign 6-31g_2dfp_

[ 6-31g_2dfp_ ]

spherical

!----------------------------------------------------------------------
! Basis Set Exchange
! Version v0.8.13
! https://www.basissetexchange.org
!----------------------------------------------------------------------
!   Basis set: 6-31G(2df,p)
! Description: 6-31G(2df,p)
!        Role: orbital
!     Version: 0  (Data from the original Basis Set Exchange)
!----------------------------------------------------------------------

****
H     0
S    3   1.00
     18.7311370              0.03349460
      2.8253937              0.23472695
      0.6401217              0.81375733
S    1   1.00
      0.1612778              1.00000000
P    1   1.00
      1.5000000              1.0000000
P    1   1.00
      0.3750000              1.0000000
****
B     0
S    6   1.00
   2068.8823000              0.0018663
    310.6495700              0.0142515
     70.6830330              0.0695516
     19.8610800              0.2325729
      6.2993048              0.4670787
      2.1270270              0.3634314
SP   3   1.00
      4.7279710             -0.1303938              0.0745976
      1.1903377             -0.1307889              0.3078467
      0.3594117              1.1309444              0.7434568
SP   1   1.00
      0.1267512              1.0000000              1.0000000
D    1   1.00
      0.8020000              1.0000000
D    1   1.00
      0.2005000              1.0000000
F    1   1.00
      0.5000000              1.0000000
****
C     0
S    6   1.00
   3047.5249000              0.0018347
    457.3695100              0.0140373
    103.9486900              0.0688426
     29.2101550              0.2321844
      9.2866630              0.4679413
      3.1639270              0.3623120
SP   3   1.00
      7.8682724             -0.1193324              0.0689991
      1.8812885             -0.1608542              0.3164240
      0.5442493              1.1434564              0.7443083
SP   1   1.00
      0.1687144              1.0000000              1.0000000
D    1   1.00
      1.2520000              1.0000000
D    1   1.00
      0.3130000              1.0000000
F    1   1.00
      0.8000000              1.0000000
****
N     0
S    6   1.00
   4173.5110000              0.0018348
    627.4579000              0.0139950
    142.9021000              0.0685870
     40.2343300              0.2322410
     12.8202100              0.4690700
      4.3904370              0.3604550
SP   3   1.00
     11.6263580             -0.1149610              0.0675800
      2.7162800             -0.1691180              0.3239070
      0.7722180              1.1458520              0.7408950
SP   1   1.00
      0.2120313              1.0000000              1.0000000
D    1   1.00
      1.8260000              1.0000000
D    1   1.00
      0.4565000              1.0000000
F    1   1.00
      1.0000000              1.0000000
****
O     0
S    6   1.00
   5484.6717000              0.0018311
    825.2349500              0.0139501
    188.0469600              0.0684451
     52.9645000              0.2327143
     16.8975700              0.4701930
      5.7996353              0.3585209
SP   3   1.00
     15.5396160             -0.1107775              0.0708743
      3.5999336             -0.1480263              0.3397528
      1.0137618              1.1307670              0.7271586
SP   1   1.00
      0.2700058              1.0000000              1.0000000
D    1   1.00
      2.5840000              1.0000000
D    1   1.00
      0.6460000              1.0000000
F    1   1.00
      1.4000000              1.0000000
****
F     0
S    6   1.00
   7001.7130900              0.0018196169
   1051.3660900              0.0139160796
    239.2856900              0.0684053245
     67.3974453              0.233185760
     21.5199573              0.471267439
      7.40310130             0.356618546
SP   3   1.00
     20.8479528             -0.108506975            0.0716287243
      4.80830834            -0.146451658            0.3459121030
      1.34406986             1.128688580            0.7224699570
SP   1   1.00
      0.358151393            1.0000000              1.0000000
D    1   1.00
      3.5000000              1.0000000
D    1   1.00
      0.8750000              1.0000000
F    1   1.00
      1.8500000              1.0000000
****
Al     0
S    6   1.00
  13983.1000000              0.00194267
   2098.7500000              0.0148599
    477.7050000              0.0728494
    134.3600000              0.2468300
     42.8709000              0.4872580
     14.5189000              0.3234960
SP   6   1.00
    239.6680000             -0.00292619             0.00460285
     57.4419000             -0.0374080              0.0331990
     18.2859000             -0.1144870              0.1362820
      6.5991400              0.1156350              0.3304760
      2.4904900              0.6125950              0.4491460
      0.9445400              0.3937990              0.2657040
SP   3   1.00
      1.2779000             -0.2276060             -0.0175130
      0.3975900              0.00144583             0.2445330
      0.1600950              1.0927900              0.8049340
SP   1   1.00
      0.0556577              1.0000000              1.0000000
D    1   1.00
      0.6500000              1.0000000
D    1   1.00
      0.1625000              1.0000000
F    1   1.00
      0.2500000              1.0000000
****
Si     0
S    6   1.00
  16115.9000000              0.00195948
   2425.5800000              0.01492880
    553.8670000              0.07284780
    156.3400000              0.24613000
     50.0683000              0.48591400
     17.0178000              0.32500200
SP   6   1.00
    292.7180000             -0.00278094             0.00443826
     69.8731000             -0.03571460             0.03266790
     22.3363000             -0.11498500             0.13472100
      8.1503900              0.09356340             0.32867800
      3.1345800              0.60301700             0.44964000
      1.2254300              0.41895900             0.26137200
SP   3   1.00
      1.7273800             -0.24463000            -0.01779510
      0.5729220              0.00431572             0.25353900
      0.2221920              1.09818000             0.80066900
SP   1   1.00
      0.0778369              1.00000000             1.00000000
D    1   1.00
      0.9000000              1.0000000
D    1   1.00
      0.2250000              1.0000000
F    1   1.00
      0.3200000              1.0000000
****
P     0
S    6   1.00
  19413.3000000              0.0018516
   2909.4200000              0.0142062
    661.3640000              0.0699995
    185.7590000              0.2400790
     59.1943000              0.4847620
     20.0310000              0.3352000
SP   6   1.00
    339.4780000             -0.00278217             0.00456462
     81.0101000             -0.0360499              0.03369360
     25.8780000             -0.1166310              0.13975500
      9.4522100              0.0968328              0.33936200
      3.6656600              0.6144180              0.45092100
      1.4674600              0.4037980              0.23858600
SP   3   1.00
      2.1562300             -0.2529230             -0.01776530
      0.7489970              0.0328517              0.27405800
      0.2831450              1.0812500              0.78542100
SP   1   1.00
      0.0998317              1.0000000              1.00000000
D    1   1.00
      1.1000000              1.0000000
D    1   1.00
      0.2750000              1.0000000
F    1   1.00
      0.4500000              1.0000000
****
S     0
S    6   1.00
  21917.1000000              0.0018690
   3301.4900000              0.0142300
    754.1460000              0.0696960
    212.7110000              0.2384870
     67.9896000              0.4833070
     23.0515000              0.3380740
SP   6   1.00
    423.7350000             -0.0023767              0.0040610
    100.7100000             -0.0316930              0.0306810
     32.1599000             -0.1133170              0.1304520
     11.8079000              0.0560900              0.3272050
      4.6311000              0.5922550              0.4528510
      1.8702500              0.4550060              0.2560420
SP   3   1.00
      2.6158400             -0.2503740             -0.0145110
      0.9221670              0.0669570              0.3102630
      0.3412870              1.0545100              0.7544830
SP   1   1.00
      0.1171670              1.0000000              1.0000000
D    1   1.00
      1.3000000              1.0000000
D    1   1.00
      0.3250000              1.0000000
F    1   1.00
      0.5500000              1.0000000
****
Cl     0
S    6   1.00
  25180.1000000              0.0018330
   3780.3500000              0.0140340
    860.4740000              0.0690970
    242.1450000              0.2374520
     77.3349000              0.4830340
     26.2470000              0.3398560
SP   6   1.00
    491.7650000             -0.0022974              0.0039894
    116.9840000             -0.0307140              0.0303180
     37.4153000             -0.1125280              0.1298800
     13.7834000              0.0450160              0.3279510
      5.4521500              0.5893530              0.4535270
      2.2258800              0.4652060              0.2521540
SP   3   1.00
      3.1864900             -0.2518300             -0.0142990
      1.1442700              0.0615890              0.3235720
      0.4203770              1.0601800              0.7435070
SP   1   1.00
      0.1426570              1.0000000              1.0000000
D    1   1.00
      1.5000000              1.0000000
D    1   1.00
      0.3750000              1.0000000
F    1   1.00
      0.7000000              1.0000000
****
}

set {
reference uhf
freeze_core true
e_convergence 10
d_convergence 10
dft_spherical_points 1202
dft_radial_points 99
}

e = energy('b3lyp')

print_out('Grab this energy {0}'.format(e))
--------------------------------------------------------------------------

    Molecular point group: cs

    Geometry (in Bohr), charge = 0, multiplicity = 2:

       Center              X                  Y                   Z               Mass
    ------------   -----------------  -----------------  -----------------  -----------------
         C           -0.004564162802    -1.355047116079     0.000000000000    12.000000000000
         C           -0.019771391302     1.465819522221     0.000000000000    12.000000000000
         H            1.916327393398    -2.110498376679     0.000000000000     1.007825032230
         H           -0.940595774302    -2.115820848979     1.671604311800     1.007825032230
         H           -0.940595774302    -2.115820848979    -1.671604311800     1.007825032230
         H            0.127311714398     2.511596006021    -1.750033653400     1.007825032230
         H            0.127311714398     2.511596006021     1.750033653400     1.007825032230

  Charge       = 0
  Multiplicity = 2
  Basis Set: ANONYMOUSF9A62DE9
    Blend: 6-31G_2DFP_
  Basis Set: (ANONYMOUSF9A62DE9 AUX)
    Blend: DEF2-UNIVERSAL-JKFIT

    Orbital Energies [Eh]
    ---------------------

    Alpha Occupied:

       1Ap   -10.179549     2Ap   -10.173348     3Ap    -0.751728
       4Ap    -0.605399     1App   -0.446254     5Ap    -0.411144
       6Ap    -0.385158     2App   -0.354429     7Ap    -0.197380

    Alpha Virtual:

       8Ap     0.099300     9Ap     0.128196     3App    0.141261
      10Ap     0.166854     4App    0.203308    11Ap     0.247093
      12Ap     0.430404     5App    0.440728    13Ap     0.446391
       6App    0.450252    14Ap     0.478566    15Ap     0.521422
      16Ap     0.544188     7App    0.574324    17Ap     0.594726
       8App    0.619071    18Ap     0.635925    19Ap     0.640165
       9App    0.650150    20Ap     0.741532    10App    0.822896
      11App    0.867263    21Ap     0.932011    22Ap     0.977757
      12App    1.024968    13App    1.071687    23Ap     1.083703
      24Ap     1.085944    25Ap     1.179581    14App    1.220503
      26Ap     1.255331    15App    1.324694    27Ap     1.344450
      28Ap     1.368626    29Ap     1.423254    16App    1.446508
      17App    1.510677    30Ap     1.524512    31Ap     1.603259
      32Ap     1.769222    33Ap     1.807310    18App    1.953032
      19App    2.050022    34Ap     2.105771    35Ap     2.699449
      36Ap     2.801940    20App    2.829061    21App    2.861288
      22App    2.929800    37Ap     2.964050    38Ap     2.987579
      23App    3.079668    39Ap     3.093154    24App    3.159348
      40Ap     3.170423    25App    3.199190    26App    3.300605
      41Ap     3.358684    42Ap     3.387501    43Ap     3.494719
      27App    3.500328    28App    3.579145    44Ap     3.595039
      45Ap     3.712814    29App    3.807001    46Ap     3.975940
      47Ap     4.024471    48Ap     4.090275    49Ap     4.129716
      30App    4.189500    31App    4.205430    50Ap     4.210604
      51Ap     4.293736    32App    4.371841    33App    4.492287
      52Ap     4.507316    53Ap     4.528301    34App    4.865248
      54Ap     4.927067    35App    5.145903    55Ap     5.169919
      56Ap     5.290833    36App    5.331975

    Beta Occupied:

       1Ap   -10.174157     2Ap   -10.165598     3Ap    -0.735173
       4Ap    -0.580628     1App   -0.440125     5Ap    -0.396570
       6Ap    -0.377252     2App   -0.349948

    Beta Virtual:

       7Ap    -0.035943     8Ap     0.101993     9Ap     0.139325
       3App    0.142901    10Ap     0.171605     4App    0.206905
      11Ap     0.252842     5App    0.441763    12Ap     0.445070
       6App    0.455984    13Ap     0.459310    14Ap     0.487446
      15Ap     0.549835     7App    0.587832    16Ap     0.592651
      17Ap     0.603535     8App    0.624336    18Ap     0.643477
      19Ap     0.646049     9App    0.657577    20Ap     0.766948
      10App    0.822650    11App    0.870268    21Ap     0.949561
      22Ap     0.989037    12App    1.033639    13App    1.079633
      23Ap     1.089106    24Ap     1.102582    25Ap     1.183255
      14App    1.228248    26Ap     1.267511    15App    1.331250
      27Ap     1.351878    28Ap     1.375045    29Ap     1.429192
      16App    1.454000    17App    1.515257    30Ap     1.535761
      31Ap     1.614379    32Ap     1.775742    33Ap     1.813427
      18App    1.957451    19App    2.059973    34Ap     2.111291
      35Ap     2.722728    36Ap     2.823955    20App    2.831013
      21App    2.877293    22App    2.932330    37Ap     2.991939
      38Ap     3.023467    23App    3.093036    39Ap     3.120116
      24App    3.177223    40Ap     3.210473    25App    3.218273
      26App    3.339241    41Ap     3.370926    42Ap     3.406401
      27App    3.519888    43Ap     3.538103    28App    3.596267
      44Ap     3.605185    45Ap     3.730947    29App    3.807296
      46Ap     3.986302    47Ap     4.033637    48Ap     4.096738
      49Ap     4.139316    30App    4.203287    31App    4.210609
      50Ap     4.219801    51Ap     4.301667    32App    4.376119
      33App    4.499233    52Ap     4.517777    53Ap     4.535714
      34App    4.866599    54Ap     4.931292    35App    5.149217
      55Ap     5.180836    56Ap     5.297905    36App    5.334517

    Final Occupation by Irrep:
             Ap   App
    DOCC [     6,    2 ]
    SOCC [     1,    0 ]

  @DF-UKS Final Energy:   -79.16610764237362

   => Energetics <=

    Nuclear Repulsion Energy =             36.9515075046911363
    One-Electron Energy =                -178.1132364208344256
    Two-Electron Energy =                  72.2789898935533444
    DFT Exchange-Correlation Energy =     -10.2833686197836780
    Empirical Dispersion Energy =           0.0000000000000000
    VV10 Nonlocal Energy =                  0.0000000000000000
    Total Energy =                        -79.1661076423736176

  UHF NO Occupations:
  HONO-2 :    2App 1.9997309
  HONO-1 :    6 Ap 1.9987067
  HONO-0 :    7 Ap 1.0000000
  LUNO+0 :    8 Ap 0.0012933
  LUNO+1 :    3App 0.0002691
  LUNO+2 :    9 Ap 0.0002442
  LUNO+3 :   10 Ap 0.0002210

Computation Completed

Properties will be evaluated at   0.000000,   0.000000,   0.000000 [a0]

Properties computed using the SCF density matrix

  Nuclear Dipole Moment: [e a0]
     X:     0.1437      Y:    -0.6543      Z:     0.0000

  Electronic Dipole Moment: [e a0]
     X:    -0.0996      Y:     0.5677      Z:     0.0000

  Dipole Moment: [e a0]
     X:     0.0441      Y:    -0.0867      Z:     0.0000     Total:     0.0972

  Dipole Moment: [D]
     X:     0.1121      Y:    -0.2203      Z:     0.0000     Total:     0.2472

*** tstop() called on n071 at Fri Nov  5 19:16:16 2021
Module time:
	user time   =      54.26 seconds =       0.90 minutes
	system time =       0.72 seconds =       0.01 minutes
	total time  =         55 seconds =       0.92 minutes
Total time:
	user time   =      54.26 seconds =       0.90 minutes
	system time =       0.72 seconds =       0.01 minutes
	total time  =         55 seconds =       0.92 minutes
Grab this energy -79.16610764237362
    Psi4 stopped on: Friday, 05 November 2021 07:16PM
    Psi4 wall time for execution: 0:00:55.06

*** Psi4 exiting successfully. Buy a developer a beer!
