                               Psi4 1.4a2.dev629

  ==> Input File <==

--------------------------------------------------------------------------
import os
memory 14 GB

molecule {
 C   -0.0054786352   -1.3532739947    0.0025370123
 C   -0.0193595984    1.4656099307   -0.0008785501
 H    1.9335541898   -2.1117550860   -0.0009679221
 H   -0.9473003575   -2.1162459361    1.6766177530
 H   -0.9467207680   -2.1160710374   -1.6774972917
 H    0.1281900660    2.5100376628   -1.7488874333
 H    0.1281676798    2.5100081929    1.7490764318
units bohr
0 2
}

basis {

assign 6-31g_2dfp_

[ 6-31g_2dfp_ ]

spherical

!----------------------------------------------------------------------
! Basis Set Exchange
! Version v0.8.13
! https://www.basissetexchange.org
!----------------------------------------------------------------------
!   Basis set: 6-31G(2df,p)
! Description: 6-31G(2df,p)
!        Role: orbital
!     Version: 0  (Data from the original Basis Set Exchange)
!----------------------------------------------------------------------

****
H     0
S    3   1.00
     18.7311370              0.03349460
      2.8253937              0.23472695
      0.6401217              0.81375733
S    1   1.00
      0.1612778              1.00000000
P    1   1.00
      1.5000000              1.0000000
P    1   1.00
      0.3750000              1.0000000
****
B     0
S    6   1.00
   2068.8823000              0.0018663
    310.6495700              0.0142515
     70.6830330              0.0695516
     19.8610800              0.2325729
      6.2993048              0.4670787
      2.1270270              0.3634314
SP   3   1.00
      4.7279710             -0.1303938              0.0745976
      1.1903377             -0.1307889              0.3078467
      0.3594117              1.1309444              0.7434568
SP   1   1.00
      0.1267512              1.0000000              1.0000000
D    1   1.00
      0.8020000              1.0000000
D    1   1.00
      0.2005000              1.0000000
F    1   1.00
      0.5000000              1.0000000
****
C     0
S    6   1.00
   3047.5249000              0.0018347
    457.3695100              0.0140373
    103.9486900              0.0688426
     29.2101550              0.2321844
      9.2866630              0.4679413
      3.1639270              0.3623120
SP   3   1.00
      7.8682724             -0.1193324              0.0689991
      1.8812885             -0.1608542              0.3164240
      0.5442493              1.1434564              0.7443083
SP   1   1.00
      0.1687144              1.0000000              1.0000000
D    1   1.00
      1.2520000              1.0000000
D    1   1.00
      0.3130000              1.0000000
F    1   1.00
      0.8000000              1.0000000
****
N     0
S    6   1.00
   4173.5110000              0.0018348
    627.4579000              0.0139950
    142.9021000              0.0685870
     40.2343300              0.2322410
     12.8202100              0.4690700
      4.3904370              0.3604550
SP   3   1.00
     11.6263580             -0.1149610              0.0675800
      2.7162800             -0.1691180              0.3239070
      0.7722180              1.1458520              0.7408950
SP   1   1.00
      0.2120313              1.0000000              1.0000000
D    1   1.00
      1.8260000              1.0000000
D    1   1.00
      0.4565000              1.0000000
F    1   1.00
      1.0000000              1.0000000
****
O     0
S    6   1.00
   5484.6717000              0.0018311
    825.2349500              0.0139501
    188.0469600              0.0684451
     52.9645000              0.2327143
     16.8975700              0.4701930
      5.7996353              0.3585209
SP   3   1.00
     15.5396160             -0.1107775              0.0708743
      3.5999336             -0.1480263              0.3397528
      1.0137618              1.1307670              0.7271586
SP   1   1.00
      0.2700058              1.0000000              1.0000000
D    1   1.00
      2.5840000              1.0000000
D    1   1.00
      0.6460000              1.0000000
F    1   1.00
      1.4000000              1.0000000
****
F     0
S    6   1.00
   7001.7130900              0.0018196169
   1051.3660900              0.0139160796
    239.2856900              0.0684053245
     67.3974453              0.233185760
     21.5199573              0.471267439
      7.40310130             0.356618546
SP   3   1.00
     20.8479528             -0.108506975            0.0716287243
      4.80830834            -0.146451658            0.3459121030
      1.34406986             1.128688580            0.7224699570
SP   1   1.00
      0.358151393            1.0000000              1.0000000
D    1   1.00
      3.5000000              1.0000000
D    1   1.00
      0.8750000              1.0000000
F    1   1.00
      1.8500000              1.0000000
****
Al     0
S    6   1.00
  13983.1000000              0.00194267
   2098.7500000              0.0148599
    477.7050000              0.0728494
    134.3600000              0.2468300
     42.8709000              0.4872580
     14.5189000              0.3234960
SP   6   1.00
    239.6680000             -0.00292619             0.00460285
     57.4419000             -0.0374080              0.0331990
     18.2859000             -0.1144870              0.1362820
      6.5991400              0.1156350              0.3304760
      2.4904900              0.6125950              0.4491460
      0.9445400              0.3937990              0.2657040
SP   3   1.00
      1.2779000             -0.2276060             -0.0175130
      0.3975900              0.00144583             0.2445330
      0.1600950              1.0927900              0.8049340
SP   1   1.00
      0.0556577              1.0000000              1.0000000
D    1   1.00
      0.6500000              1.0000000
D    1   1.00
      0.1625000              1.0000000
F    1   1.00
      0.2500000              1.0000000
****
Si     0
S    6   1.00
  16115.9000000              0.00195948
   2425.5800000              0.01492880
    553.8670000              0.07284780
    156.3400000              0.24613000
     50.0683000              0.48591400
     17.0178000              0.32500200
SP   6   1.00
    292.7180000             -0.00278094             0.00443826
     69.8731000             -0.03571460             0.03266790
     22.3363000             -0.11498500             0.13472100
      8.1503900              0.09356340             0.32867800
      3.1345800              0.60301700             0.44964000
      1.2254300              0.41895900             0.26137200
SP   3   1.00
      1.7273800             -0.24463000            -0.01779510
      0.5729220              0.00431572             0.25353900
      0.2221920              1.09818000             0.80066900
SP   1   1.00
      0.0778369              1.00000000             1.00000000
D    1   1.00
      0.9000000              1.0000000
D    1   1.00
      0.2250000              1.0000000
F    1   1.00
      0.3200000              1.0000000
****
P     0
S    6   1.00
  19413.3000000              0.0018516
   2909.4200000              0.0142062
    661.3640000              0.0699995
    185.7590000              0.2400790
     59.1943000              0.4847620
     20.0310000              0.3352000
SP   6   1.00
    339.4780000             -0.00278217             0.00456462
     81.0101000             -0.0360499              0.03369360
     25.8780000             -0.1166310              0.13975500
      9.4522100              0.0968328              0.33936200
      3.6656600              0.6144180              0.45092100
      1.4674600              0.4037980              0.23858600
SP   3   1.00
      2.1562300             -0.2529230             -0.01776530
      0.7489970              0.0328517              0.27405800
      0.2831450              1.0812500              0.78542100
SP   1   1.00
      0.0998317              1.0000000              1.00000000
D    1   1.00
      1.1000000              1.0000000
D    1   1.00
      0.2750000              1.0000000
F    1   1.00
      0.4500000              1.0000000
****
S     0
S    6   1.00
  21917.1000000              0.0018690
   3301.4900000              0.0142300
    754.1460000              0.0696960
    212.7110000              0.2384870
     67.9896000              0.4833070
     23.0515000              0.3380740
SP   6   1.00
    423.7350000             -0.0023767              0.0040610
    100.7100000             -0.0316930              0.0306810
     32.1599000             -0.1133170              0.1304520
     11.8079000              0.0560900              0.3272050
      4.6311000              0.5922550              0.4528510
      1.8702500              0.4550060              0.2560420
SP   3   1.00
      2.6158400             -0.2503740             -0.0145110
      0.9221670              0.0669570              0.3102630
      0.3412870              1.0545100              0.7544830
SP   1   1.00
      0.1171670              1.0000000              1.0000000
D    1   1.00
      1.3000000              1.0000000
D    1   1.00
      0.3250000              1.0000000
F    1   1.00
      0.5500000              1.0000000
****
Cl     0
S    6   1.00
  25180.1000000              0.0018330
   3780.3500000              0.0140340
    860.4740000              0.0690970
    242.1450000              0.2374520
     77.3349000              0.4830340
     26.2470000              0.3398560
SP   6   1.00
    491.7650000             -0.0022974              0.0039894
    116.9840000             -0.0307140              0.0303180
     37.4153000             -0.1125280              0.1298800
     13.7834000              0.0450160              0.3279510
      5.4521500              0.5893530              0.4535270
      2.2258800              0.4652060              0.2521540
SP   3   1.00
      3.1864900             -0.2518300             -0.0142990
      1.1442700              0.0615890              0.3235720
      0.4203770              1.0601800              0.7435070
SP   1   1.00
      0.1426570              1.0000000              1.0000000
D    1   1.00
      1.5000000              1.0000000
D    1   1.00
      0.3750000              1.0000000
F    1   1.00
      0.7000000              1.0000000
****
}

set {
reference uhf
freeze_core true
e_convergence 10
d_convergence 10
dft_spherical_points 1202
dft_radial_points 99
}

e = energy('b3lyp')

print_out('Grab this energy {0}'.format(e))
--------------------------------------------------------------------------

    Molecular point group: c1

    Geometry (in Bohr), charge = 0, multiplicity = 2:

       Center              X                  Y                   Z               Mass
    ------------   -----------------  -----------------  -----------------  -----------------
         C           -0.005483709803    -1.353743860111     0.001909234897    12.000000000000
         C           -0.019364673003     1.465140065289    -0.001506327503    12.000000000000
         H            1.933549115197    -2.112224951411    -0.001595699503     1.007825032230
         H           -0.947305432103    -2.116715801511     1.675989975597     1.007825032230
         H           -0.946725842603    -2.116540902811    -1.678125069103     1.007825032230
         H            0.128184991397     2.509567797389    -1.749515210703     1.007825032230
         H            0.128162605197     2.509538327489     1.748448654397     1.007825032230

  Charge       = 0
  Multiplicity = 2
  Basis Set: ANONYMOUS4BB30E66
    Blend: 6-31G_2DFP_
  Basis Set: (ANONYMOUS4BB30E66 AUX)
    Blend: DEF2-UNIVERSAL-JKFIT

    Orbital Energies [Eh]
    ---------------------

    Alpha Occupied:

       1A    -10.179440     2A    -10.175049     3A     -0.751335
       4A     -0.604577     5A     -0.446191     6A     -0.410158
       7A     -0.385225     8A     -0.353991     9A     -0.197331

    Alpha Virtual:

      10A      0.098705    11A      0.127899    12A      0.140419
      13A      0.165059    14A      0.203149    15A      0.247247
      16A      0.430268    17A      0.440714    18A      0.446149
      19A      0.449628    20A      0.478448    21A      0.520696
      22A      0.543580    23A      0.573959    24A      0.593447
      25A      0.618103    26A      0.633321    27A      0.638803
      28A      0.649944    29A      0.741062    30A      0.822275
      31A      0.864329    32A      0.930628    33A      0.976959
      34A      1.024757    35A      1.071197    36A      1.083250
      37A      1.085413    38A      1.179275    39A      1.220109
      40A      1.253084    41A      1.322664    42A      1.344812
      43A      1.365954    44A      1.418827    45A      1.444189
      46A      1.509525    47A      1.523518    48A      1.603695
      49A      1.762180    50A      1.803431    51A      1.949499
      52A      2.049896    53A      2.102493    54A      2.697535
      55A      2.800468    56A      2.828530    57A      2.858862
      58A      2.927624    59A      2.962371    60A      2.986215
      61A      3.080508    62A      3.092745    63A      3.158219
      64A      3.171029    65A      3.199434    66A      3.300336
      67A      3.358434    68A      3.392256    69A      3.493572
      70A      3.500104    71A      3.582519    72A      3.592464
      73A      3.711535    74A      3.806196    75A      3.971734
      76A      4.023584    77A      4.084781    78A      4.129603
      79A      4.188102    80A      4.193333    81A      4.200387
      82A      4.295061    83A      4.365210    84A      4.485888
      85A      4.497807    86A      4.525452    87A      4.863456
      88A      4.922069    89A      5.146491    90A      5.168357
      91A      5.271396    92A      5.322674

    Beta Occupied:

       1A    -10.175876     2A    -10.165503     3A     -0.734581
       4A     -0.580085     5A     -0.440014     6A     -0.395435
       7A     -0.377297     8A     -0.349559

    Beta Virtual:

       9A     -0.036180    10A      0.101315    11A      0.139091
      12A      0.142019    13A      0.169955    14A      0.206765
      15A      0.252987    16A      0.441780    17A      0.444850
      18A      0.455328    19A      0.459186    20A      0.487357
      21A      0.548650    22A      0.587274    23A      0.592191
      24A      0.602149    25A      0.623534    26A      0.641323
      27A      0.644624    28A      0.657419    29A      0.766392
      30A      0.822096    31A      0.867381    32A      0.948355
      33A      0.988105    34A      1.033312    35A      1.079205
      36A      1.088349    37A      1.102289    38A      1.182918
      39A      1.227845    40A      1.265479    41A      1.329200
      42A      1.352334    43A      1.372257    44A      1.424814
      45A      1.451695    46A      1.514139    47A      1.534691
      48A      1.614896    49A      1.768648    50A      1.809819
      51A      1.953953    52A      2.059847    53A      2.108010
      54A      2.720746    55A      2.822184    56A      2.830352
      57A      2.874910    58A      2.930143    59A      2.988644
      60A      3.023440    61A      3.094026    62A      3.120223
      63A      3.175799    64A      3.211104    65A      3.218414
      66A      3.339186    67A      3.371553    68A      3.410280
      69A      3.520332    70A      3.536254    71A      3.598772
      72A      3.602708    73A      3.729707    74A      3.806552
      75A      3.982524    76A      4.032838    77A      4.091053
      78A      4.139006    79A      4.196668    80A      4.203931
      81A      4.209990    82A      4.302979    83A      4.369512
      84A      4.492945    85A      4.508529    86A      4.532696
      87A      4.864818    88A      4.926391    89A      5.149785
      90A      5.179243    91A      5.278581    92A      5.325244

    Final Occupation by Irrep:
              A
    DOCC [     8 ]
    SOCC [     1 ]

  @DF-UKS Final Energy:   -79.16617870463598

   => Energetics <=

    Nuclear Repulsion Energy =             36.9088482640278670
    One-Electron Energy =                -178.0331976888196550
    Two-Electron Energy =                  72.2373204357192407
    DFT Exchange-Correlation Energy =     -10.2791497155634470
    Empirical Dispersion Energy =           0.0000000000000000
    VV10 Nonlocal Energy =                  0.0000000000000000
    Total Energy =                        -79.1661787046359819

  UHF NO Occupations:
  HONO-2 :    7  A 1.9997323
  HONO-1 :    8  A 1.9987116
  HONO-0 :    9  A 1.0000000
  LUNO+0 :   10  A 0.0012884
  LUNO+1 :   11  A 0.0002677
  LUNO+2 :   12  A 0.0002538
  LUNO+3 :   13  A 0.0002224

Computation Completed

Properties will be evaluated at   0.000000,   0.000000,   0.000000 [a0]

Properties computed using the SCF density matrix

  Nuclear Dipole Moment: [e a0]
     X:     0.1468      Y:    -0.6580      Z:    -0.0024

  Electronic Dipole Moment: [e a0]
     X:    -0.1042      Y:     0.5746      Z:     0.0024

  Dipole Moment: [e a0]
     X:     0.0426      Y:    -0.0834      Z:     0.0000     Total:     0.0936

  Dipole Moment: [D]
     X:     0.1082      Y:    -0.2120      Z:     0.0000     Total:     0.2380

*** tstop() called on n045 at Fri Nov  5 17:23:35 2021
Module time:
	user time   =      61.22 seconds =       1.02 minutes
	system time =       0.48 seconds =       0.01 minutes
	total time  =         62 seconds =       1.03 minutes
Total time:
	user time   =      61.22 seconds =       1.02 minutes
	system time =       0.48 seconds =       0.01 minutes
	total time  =         62 seconds =       1.03 minutes
Grab this energy -79.16617870463598
    Psi4 stopped on: Friday, 05 November 2021 05:23PM
    Psi4 wall time for execution: 0:01:01.75

*** Psi4 exiting successfully. Buy a developer a beer!
