                               Psi4 1.4a2.dev629

  ==> Input File <==

--------------------------------------------------------------------------
import os
memory 14 GB

molecule {
 C   -0.0072041876   -1.3544009027   -0.0009595738
 C   -0.0197903997    1.4655709225    0.0009501898
 H    1.9337627570   -2.1122814526   -0.0022633664
 H   -0.9462377839   -2.1095723870    1.6661645560
 H   -0.9461304939   -2.1220911975   -1.6699121823
 H    0.1282940501    2.5078038346   -1.7464593750
 H    0.1283586344    2.5132809149    1.7524797517
units bohr
0 2
}

basis {

assign 6-31g_2dfp_

[ 6-31g_2dfp_ ]

spherical

!----------------------------------------------------------------------
! Basis Set Exchange
! Version v0.8.13
! https://www.basissetexchange.org
!----------------------------------------------------------------------
!   Basis set: 6-31G(2df,p)
! Description: 6-31G(2df,p)
!        Role: orbital
!     Version: 0  (Data from the original Basis Set Exchange)
!----------------------------------------------------------------------

****
H     0
S    3   1.00
     18.7311370              0.03349460
      2.8253937              0.23472695
      0.6401217              0.81375733
S    1   1.00
      0.1612778              1.00000000
P    1   1.00
      1.5000000              1.0000000
P    1   1.00
      0.3750000              1.0000000
****
B     0
S    6   1.00
   2068.8823000              0.0018663
    310.6495700              0.0142515
     70.6830330              0.0695516
     19.8610800              0.2325729
      6.2993048              0.4670787
      2.1270270              0.3634314
SP   3   1.00
      4.7279710             -0.1303938              0.0745976
      1.1903377             -0.1307889              0.3078467
      0.3594117              1.1309444              0.7434568
SP   1   1.00
      0.1267512              1.0000000              1.0000000
D    1   1.00
      0.8020000              1.0000000
D    1   1.00
      0.2005000              1.0000000
F    1   1.00
      0.5000000              1.0000000
****
C     0
S    6   1.00
   3047.5249000              0.0018347
    457.3695100              0.0140373
    103.9486900              0.0688426
     29.2101550              0.2321844
      9.2866630              0.4679413
      3.1639270              0.3623120
SP   3   1.00
      7.8682724             -0.1193324              0.0689991
      1.8812885             -0.1608542              0.3164240
      0.5442493              1.1434564              0.7443083
SP   1   1.00
      0.1687144              1.0000000              1.0000000
D    1   1.00
      1.2520000              1.0000000
D    1   1.00
      0.3130000              1.0000000
F    1   1.00
      0.8000000              1.0000000
****
N     0
S    6   1.00
   4173.5110000              0.0018348
    627.4579000              0.0139950
    142.9021000              0.0685870
     40.2343300              0.2322410
     12.8202100              0.4690700
      4.3904370              0.3604550
SP   3   1.00
     11.6263580             -0.1149610              0.0675800
      2.7162800             -0.1691180              0.3239070
      0.7722180              1.1458520              0.7408950
SP   1   1.00
      0.2120313              1.0000000              1.0000000
D    1   1.00
      1.8260000              1.0000000
D    1   1.00
      0.4565000              1.0000000
F    1   1.00
      1.0000000              1.0000000
****
O     0
S    6   1.00
   5484.6717000              0.0018311
    825.2349500              0.0139501
    188.0469600              0.0684451
     52.9645000              0.2327143
     16.8975700              0.4701930
      5.7996353              0.3585209
SP   3   1.00
     15.5396160             -0.1107775              0.0708743
      3.5999336             -0.1480263              0.3397528
      1.0137618              1.1307670              0.7271586
SP   1   1.00
      0.2700058              1.0000000              1.0000000
D    1   1.00
      2.5840000              1.0000000
D    1   1.00
      0.6460000              1.0000000
F    1   1.00
      1.4000000              1.0000000
****
F     0
S    6   1.00
   7001.7130900              0.0018196169
   1051.3660900              0.0139160796
    239.2856900              0.0684053245
     67.3974453              0.233185760
     21.5199573              0.471267439
      7.40310130             0.356618546
SP   3   1.00
     20.8479528             -0.108506975            0.0716287243
      4.80830834            -0.146451658            0.3459121030
      1.34406986             1.128688580            0.7224699570
SP   1   1.00
      0.358151393            1.0000000              1.0000000
D    1   1.00
      3.5000000              1.0000000
D    1   1.00
      0.8750000              1.0000000
F    1   1.00
      1.8500000              1.0000000
****
Al     0
S    6   1.00
  13983.1000000              0.00194267
   2098.7500000              0.0148599
    477.7050000              0.0728494
    134.3600000              0.2468300
     42.8709000              0.4872580
     14.5189000              0.3234960
SP   6   1.00
    239.6680000             -0.00292619             0.00460285
     57.4419000             -0.0374080              0.0331990
     18.2859000             -0.1144870              0.1362820
      6.5991400              0.1156350              0.3304760
      2.4904900              0.6125950              0.4491460
      0.9445400              0.3937990              0.2657040
SP   3   1.00
      1.2779000             -0.2276060             -0.0175130
      0.3975900              0.00144583             0.2445330
      0.1600950              1.0927900              0.8049340
SP   1   1.00
      0.0556577              1.0000000              1.0000000
D    1   1.00
      0.6500000              1.0000000
D    1   1.00
      0.1625000              1.0000000
F    1   1.00
      0.2500000              1.0000000
****
Si     0
S    6   1.00
  16115.9000000              0.00195948
   2425.5800000              0.01492880
    553.8670000              0.07284780
    156.3400000              0.24613000
     50.0683000              0.48591400
     17.0178000              0.32500200
SP   6   1.00
    292.7180000             -0.00278094             0.00443826
     69.8731000             -0.03571460             0.03266790
     22.3363000             -0.11498500             0.13472100
      8.1503900              0.09356340             0.32867800
      3.1345800              0.60301700             0.44964000
      1.2254300              0.41895900             0.26137200
SP   3   1.00
      1.7273800             -0.24463000            -0.01779510
      0.5729220              0.00431572             0.25353900
      0.2221920              1.09818000             0.80066900
SP   1   1.00
      0.0778369              1.00000000             1.00000000
D    1   1.00
      0.9000000              1.0000000
D    1   1.00
      0.2250000              1.0000000
F    1   1.00
      0.3200000              1.0000000
****
P     0
S    6   1.00
  19413.3000000              0.0018516
   2909.4200000              0.0142062
    661.3640000              0.0699995
    185.7590000              0.2400790
     59.1943000              0.4847620
     20.0310000              0.3352000
SP   6   1.00
    339.4780000             -0.00278217             0.00456462
     81.0101000             -0.0360499              0.03369360
     25.8780000             -0.1166310              0.13975500
      9.4522100              0.0968328              0.33936200
      3.6656600              0.6144180              0.45092100
      1.4674600              0.4037980              0.23858600
SP   3   1.00
      2.1562300             -0.2529230             -0.01776530
      0.7489970              0.0328517              0.27405800
      0.2831450              1.0812500              0.78542100
SP   1   1.00
      0.0998317              1.0000000              1.00000000
D    1   1.00
      1.1000000              1.0000000
D    1   1.00
      0.2750000              1.0000000
F    1   1.00
      0.4500000              1.0000000
****
S     0
S    6   1.00
  21917.1000000              0.0018690
   3301.4900000              0.0142300
    754.1460000              0.0696960
    212.7110000              0.2384870
     67.9896000              0.4833070
     23.0515000              0.3380740
SP   6   1.00
    423.7350000             -0.0023767              0.0040610
    100.7100000             -0.0316930              0.0306810
     32.1599000             -0.1133170              0.1304520
     11.8079000              0.0560900              0.3272050
      4.6311000              0.5922550              0.4528510
      1.8702500              0.4550060              0.2560420
SP   3   1.00
      2.6158400             -0.2503740             -0.0145110
      0.9221670              0.0669570              0.3102630
      0.3412870              1.0545100              0.7544830
SP   1   1.00
      0.1171670              1.0000000              1.0000000
D    1   1.00
      1.3000000              1.0000000
D    1   1.00
      0.3250000              1.0000000
F    1   1.00
      0.5500000              1.0000000
****
Cl     0
S    6   1.00
  25180.1000000              0.0018330
   3780.3500000              0.0140340
    860.4740000              0.0690970
    242.1450000              0.2374520
     77.3349000              0.4830340
     26.2470000              0.3398560
SP   6   1.00
    491.7650000             -0.0022974              0.0039894
    116.9840000             -0.0307140              0.0303180
     37.4153000             -0.1125280              0.1298800
     13.7834000              0.0450160              0.3279510
      5.4521500              0.5893530              0.4535270
      2.2258800              0.4652060              0.2521540
SP   3   1.00
      3.1864900             -0.2518300             -0.0142990
      1.1442700              0.0615890              0.3235720
      0.4203770              1.0601800              0.7435070
SP   1   1.00
      0.1426570              1.0000000              1.0000000
D    1   1.00
      1.5000000              1.0000000
D    1   1.00
      0.3750000              1.0000000
F    1   1.00
      0.7000000              1.0000000
****
}

set {
reference uhf
freeze_core true
e_convergence 10
d_convergence 10
dft_spherical_points 1202
dft_radial_points 99
}

e = energy('b3lyp')

print_out('Grab this energy {0}'.format(e))
--------------------------------------------------------------------------

    Molecular point group: c1

    Geometry (in Bohr), charge = 0, multiplicity = 2:

       Center              X                  Y                   Z               Mass
    ------------   -----------------  -----------------  -----------------  -----------------
         C           -0.006393018010    -1.354429434056    -0.000956021676    12.000000000000
         C           -0.018979230110     1.465542391144     0.000953741924    12.000000000000
         H            1.934573926590    -2.112309983956    -0.002259814276     1.007825032230
         H           -0.945426614310    -2.109600918356     1.666168108124     1.007825032230
         H           -0.945319324310    -2.122119728856    -1.669908630176     1.007825032230
         H            0.129105219690     2.507775303244    -1.746455822876     1.007825032230
         H            0.129169803990     2.513252383544     1.752483303824     1.007825032230

  Charge       = 0
  Multiplicity = 2
  Basis Set: ANONYMOUS923D8788
    Blend: 6-31G_2DFP_
  Basis Set: (ANONYMOUS923D8788 AUX)
    Blend: DEF2-UNIVERSAL-JKFIT

    Orbital Energies [Eh]
    ---------------------

    Alpha Occupied:

       1A    -10.179501     2A    -10.174208     3A     -0.751506
       4A     -0.604984     5A     -0.446311     6A     -0.410322
       7A     -0.385307     8A     -0.354359     9A     -0.197343

    Alpha Virtual:

      10A      0.099107    11A      0.127819    12A      0.141343
      13A      0.165315    14A      0.203385    15A      0.247272
      16A      0.430330    17A      0.440452    18A      0.446275
      19A      0.450069    20A      0.478830    21A      0.520668
      22A      0.543760    23A      0.574444    24A      0.594003
      25A      0.619067    26A      0.632823    27A      0.640413
      28A      0.650352    29A      0.741174    30A      0.822589
      31A      0.866070    32A      0.930887    33A      0.976657
      34A      1.025016    35A      1.071533    36A      1.083570
      37A      1.086110    38A      1.180893    39A      1.220840
      40A      1.252767    41A      1.323089    42A      1.345116
      43A      1.367850    44A      1.418567    45A      1.446619
      46A      1.509580    47A      1.524433    48A      1.603153
      49A      1.762006    50A      1.809402    51A      1.953770
      52A      2.049880    53A      2.101176    54A      2.697985
      55A      2.801011    56A      2.829100    57A      2.861318
      58A      2.928973    59A      2.962707    60A      2.985931
      61A      3.080405    62A      3.093991    63A      3.158637
      64A      3.170793    65A      3.198587    66A      3.300339
      67A      3.357366    68A      3.390637    69A      3.493730
      70A      3.498162    71A      3.581630    72A      3.595957
      73A      3.712601    74A      3.806751    75A      3.973437
      76A      4.023025    77A      4.089184    78A      4.128949
      79A      4.188620    80A      4.197636    81A      4.204800
      82A      4.295084    83A      4.369619    84A      4.491257
      85A      4.497851    86A      4.528655    87A      4.866230
      88A      4.924231    89A      5.146770    90A      5.168300
      91A      5.275205    92A      5.333008

    Beta Occupied:

       1A    -10.175032     2A    -10.165560     3A     -0.734866
       4A     -0.580384     5A     -0.440179     6A     -0.395656
       7A     -0.377337     8A     -0.349910

    Beta Virtual:

       9A     -0.036106    10A      0.101760    11A      0.138969
      12A      0.143000    13A      0.170172    14A      0.206971
      15A      0.253022    16A      0.441532    17A      0.445145
      18A      0.455730    19A      0.459270    20A      0.487503
      21A      0.548837    22A      0.588021    23A      0.592320
      24A      0.602732    25A      0.624253    26A      0.640892
      27A      0.646028    28A      0.657763    29A      0.766525
      30A      0.822385    31A      0.869108    32A      0.948628
      33A      0.987785    34A      1.033634    35A      1.079490
      36A      1.089430    37A      1.102319    38A      1.184462
      39A      1.228570    40A      1.265262    41A      1.329673
      42A      1.352642    43A      1.374102    44A      1.424531
      45A      1.454050    46A      1.514163    47A      1.535722
      48A      1.614320    49A      1.768623    50A      1.815547
      51A      1.958193    52A      2.059812    53A      2.106675
      54A      2.721199    55A      2.822647    56A      2.831131
      57A      2.877409    58A      2.931527    59A      2.989066
      60A      3.023093    61A      3.093687    62A      3.121392
      63A      3.176409    64A      3.210968    65A      3.217459
      66A      3.339073    67A      3.369585    68A      3.409597
      69A      3.518128    70A      3.536554    71A      3.598391
      72A      3.606102    73A      3.730806    74A      3.807054
      75A      3.984053    76A      4.032404    77A      4.095707
      78A      4.138391    79A      4.201036    80A      4.204597
      81A      4.213900    82A      4.303184    83A      4.373789
      84A      4.498139    85A      4.508441    86A      4.535893
      87A      4.867568    88A      4.928593    89A      5.150204
      90A      5.179064    91A      5.282300    92A      5.335517

    Final Occupation by Irrep:
              A
    DOCC [     8 ]
    SOCC [     1 ]

  @DF-UKS Final Energy:   -79.16614745757073

   => Energetics <=

    Nuclear Repulsion Energy =             36.9293374678725996
    One-Electron Energy =                -178.0715457160105473
    Two-Electron Energy =                  72.2572850060104912
    DFT Exchange-Correlation Energy =     -10.2812242154432845
    Empirical Dispersion Energy =           0.0000000000000000
    VV10 Nonlocal Energy =                  0.0000000000000000
    Total Energy =                        -79.1661474575707302

  UHF NO Occupations:
  HONO-2 :    7  A 1.9997318
  HONO-1 :    8  A 1.9987094
  HONO-0 :    9  A 1.0000000
  LUNO+0 :   10  A 0.0012906
  LUNO+1 :   11  A 0.0002682
  LUNO+2 :   12  A 0.0002537
  LUNO+3 :   13  A 0.0002225

Computation Completed

Properties will be evaluated at   0.000000,   0.000000,   0.000000 [a0]

Properties computed using the SCF density matrix

  Nuclear Dipole Moment: [e a0]
     X:     0.1499      Y:    -0.6563      Z:     0.0000

  Electronic Dipole Moment: [e a0]
     X:    -0.1088      Y:     0.5714      Z:     0.0002

  Dipole Moment: [e a0]
     X:     0.0411      Y:    -0.0849      Z:     0.0003     Total:     0.0943

  Dipole Moment: [D]
     X:     0.1044      Y:    -0.2158      Z:     0.0007     Total:     0.2397

*** tstop() called on n061 at Fri Nov  5 19:17:09 2021
Module time:
	user time   =      50.36 seconds =       0.84 minutes
	system time =       0.60 seconds =       0.01 minutes
	total time  =         51 seconds =       0.85 minutes
Total time:
	user time   =      50.36 seconds =       0.84 minutes
	system time =       0.60 seconds =       0.01 minutes
	total time  =         51 seconds =       0.85 minutes
Grab this energy -79.16614745757073
    Psi4 stopped on: Friday, 05 November 2021 07:17PM
    Psi4 wall time for execution: 0:00:51.00

*** Psi4 exiting successfully. Buy a developer a beer!
