                               Psi4 1.4a2.dev629

  ==> Input File <==

--------------------------------------------------------------------------
import os
memory 14 GB

molecule {
 C   -0.0078712669   -1.3533857468   -0.0000000000
 C   -0.0211207084    1.4656658310   -0.0000000000
 H    1.9339081612   -2.1117407307   -0.0000000000
 H   -0.9459837785   -2.1161202840    1.6774445843
 H   -0.9459837785   -2.1161202840   -1.6774445843
 H    0.1290519737    2.5100054733   -1.7489348958
 H    0.1290519737    2.5100054733    1.7489348958
units bohr
0 2
}

basis {

assign 6-31g_2dfp_

[ 6-31g_2dfp_ ]

spherical

!----------------------------------------------------------------------
! Basis Set Exchange
! Version v0.8.13
! https://www.basissetexchange.org
!----------------------------------------------------------------------
!   Basis set: 6-31G(2df,p)
! Description: 6-31G(2df,p)
!        Role: orbital
!     Version: 0  (Data from the original Basis Set Exchange)
!----------------------------------------------------------------------

****
H     0
S    3   1.00
     18.7311370              0.03349460
      2.8253937              0.23472695
      0.6401217              0.81375733
S    1   1.00
      0.1612778              1.00000000
P    1   1.00
      1.5000000              1.0000000
P    1   1.00
      0.3750000              1.0000000
****
B     0
S    6   1.00
   2068.8823000              0.0018663
    310.6495700              0.0142515
     70.6830330              0.0695516
     19.8610800              0.2325729
      6.2993048              0.4670787
      2.1270270              0.3634314
SP   3   1.00
      4.7279710             -0.1303938              0.0745976
      1.1903377             -0.1307889              0.3078467
      0.3594117              1.1309444              0.7434568
SP   1   1.00
      0.1267512              1.0000000              1.0000000
D    1   1.00
      0.8020000              1.0000000
D    1   1.00
      0.2005000              1.0000000
F    1   1.00
      0.5000000              1.0000000
****
C     0
S    6   1.00
   3047.5249000              0.0018347
    457.3695100              0.0140373
    103.9486900              0.0688426
     29.2101550              0.2321844
      9.2866630              0.4679413
      3.1639270              0.3623120
SP   3   1.00
      7.8682724             -0.1193324              0.0689991
      1.8812885             -0.1608542              0.3164240
      0.5442493              1.1434564              0.7443083
SP   1   1.00
      0.1687144              1.0000000              1.0000000
D    1   1.00
      1.2520000              1.0000000
D    1   1.00
      0.3130000              1.0000000
F    1   1.00
      0.8000000              1.0000000
****
N     0
S    6   1.00
   4173.5110000              0.0018348
    627.4579000              0.0139950
    142.9021000              0.0685870
     40.2343300              0.2322410
     12.8202100              0.4690700
      4.3904370              0.3604550
SP   3   1.00
     11.6263580             -0.1149610              0.0675800
      2.7162800             -0.1691180              0.3239070
      0.7722180              1.1458520              0.7408950
SP   1   1.00
      0.2120313              1.0000000              1.0000000
D    1   1.00
      1.8260000              1.0000000
D    1   1.00
      0.4565000              1.0000000
F    1   1.00
      1.0000000              1.0000000
****
O     0
S    6   1.00
   5484.6717000              0.0018311
    825.2349500              0.0139501
    188.0469600              0.0684451
     52.9645000              0.2327143
     16.8975700              0.4701930
      5.7996353              0.3585209
SP   3   1.00
     15.5396160             -0.1107775              0.0708743
      3.5999336             -0.1480263              0.3397528
      1.0137618              1.1307670              0.7271586
SP   1   1.00
      0.2700058              1.0000000              1.0000000
D    1   1.00
      2.5840000              1.0000000
D    1   1.00
      0.6460000              1.0000000
F    1   1.00
      1.4000000              1.0000000
****
F     0
S    6   1.00
   7001.7130900              0.0018196169
   1051.3660900              0.0139160796
    239.2856900              0.0684053245
     67.3974453              0.233185760
     21.5199573              0.471267439
      7.40310130             0.356618546
SP   3   1.00
     20.8479528             -0.108506975            0.0716287243
      4.80830834            -0.146451658            0.3459121030
      1.34406986             1.128688580            0.7224699570
SP   1   1.00
      0.358151393            1.0000000              1.0000000
D    1   1.00
      3.5000000              1.0000000
D    1   1.00
      0.8750000              1.0000000
F    1   1.00
      1.8500000              1.0000000
****
Al     0
S    6   1.00
  13983.1000000              0.00194267
   2098.7500000              0.0148599
    477.7050000              0.0728494
    134.3600000              0.2468300
     42.8709000              0.4872580
     14.5189000              0.3234960
SP   6   1.00
    239.6680000             -0.00292619             0.00460285
     57.4419000             -0.0374080              0.0331990
     18.2859000             -0.1144870              0.1362820
      6.5991400              0.1156350              0.3304760
      2.4904900              0.6125950              0.4491460
      0.9445400              0.3937990              0.2657040
SP   3   1.00
      1.2779000             -0.2276060             -0.0175130
      0.3975900              0.00144583             0.2445330
      0.1600950              1.0927900              0.8049340
SP   1   1.00
      0.0556577              1.0000000              1.0000000
D    1   1.00
      0.6500000              1.0000000
D    1   1.00
      0.1625000              1.0000000
F    1   1.00
      0.2500000              1.0000000
****
Si     0
S    6   1.00
  16115.9000000              0.00195948
   2425.5800000              0.01492880
    553.8670000              0.07284780
    156.3400000              0.24613000
     50.0683000              0.48591400
     17.0178000              0.32500200
SP   6   1.00
    292.7180000             -0.00278094             0.00443826
     69.8731000             -0.03571460             0.03266790
     22.3363000             -0.11498500             0.13472100
      8.1503900              0.09356340             0.32867800
      3.1345800              0.60301700             0.44964000
      1.2254300              0.41895900             0.26137200
SP   3   1.00
      1.7273800             -0.24463000            -0.01779510
      0.5729220              0.00431572             0.25353900
      0.2221920              1.09818000             0.80066900
SP   1   1.00
      0.0778369              1.00000000             1.00000000
D    1   1.00
      0.9000000              1.0000000
D    1   1.00
      0.2250000              1.0000000
F    1   1.00
      0.3200000              1.0000000
****
P     0
S    6   1.00
  19413.3000000              0.0018516
   2909.4200000              0.0142062
    661.3640000              0.0699995
    185.7590000              0.2400790
     59.1943000              0.4847620
     20.0310000              0.3352000
SP   6   1.00
    339.4780000             -0.00278217             0.00456462
     81.0101000             -0.0360499              0.03369360
     25.8780000             -0.1166310              0.13975500
      9.4522100              0.0968328              0.33936200
      3.6656600              0.6144180              0.45092100
      1.4674600              0.4037980              0.23858600
SP   3   1.00
      2.1562300             -0.2529230             -0.01776530
      0.7489970              0.0328517              0.27405800
      0.2831450              1.0812500              0.78542100
SP   1   1.00
      0.0998317              1.0000000              1.00000000
D    1   1.00
      1.1000000              1.0000000
D    1   1.00
      0.2750000              1.0000000
F    1   1.00
      0.4500000              1.0000000
****
S     0
S    6   1.00
  21917.1000000              0.0018690
   3301.4900000              0.0142300
    754.1460000              0.0696960
    212.7110000              0.2384870
     67.9896000              0.4833070
     23.0515000              0.3380740
SP   6   1.00
    423.7350000             -0.0023767              0.0040610
    100.7100000             -0.0316930              0.0306810
     32.1599000             -0.1133170              0.1304520
     11.8079000              0.0560900              0.3272050
      4.6311000              0.5922550              0.4528510
      1.8702500              0.4550060              0.2560420
SP   3   1.00
      2.6158400             -0.2503740             -0.0145110
      0.9221670              0.0669570              0.3102630
      0.3412870              1.0545100              0.7544830
SP   1   1.00
      0.1171670              1.0000000              1.0000000
D    1   1.00
      1.3000000              1.0000000
D    1   1.00
      0.3250000              1.0000000
F    1   1.00
      0.5500000              1.0000000
****
Cl     0
S    6   1.00
  25180.1000000              0.0018330
   3780.3500000              0.0140340
    860.4740000              0.0690970
    242.1450000              0.2374520
     77.3349000              0.4830340
     26.2470000              0.3398560
SP   6   1.00
    491.7650000             -0.0022974              0.0039894
    116.9840000             -0.0307140              0.0303180
     37.4153000             -0.1125280              0.1298800
     13.7834000              0.0450160              0.3279510
      5.4521500              0.5893530              0.4535270
      2.2258800              0.4652060              0.2521540
SP   3   1.00
      3.1864900             -0.2518300             -0.0142990
      1.1442700              0.0615890              0.3235720
      0.4203770              1.0601800              0.7435070
SP   1   1.00
      0.1426570              1.0000000              1.0000000
D    1   1.00
      1.5000000              1.0000000
D    1   1.00
      0.3750000              1.0000000
F    1   1.00
      0.7000000              1.0000000
****
}

set {
reference uhf
freeze_core true
e_convergence 10
d_convergence 10
dft_spherical_points 1202
dft_radial_points 99
}

e = energy('b3lyp')

print_out('Grab this energy {0}'.format(e))
--------------------------------------------------------------------------

    Molecular point group: cs

    Geometry (in Bohr), charge = 0, multiplicity = 2:

       Center              X                  Y                   Z               Mass
    ------------   -----------------  -----------------  -----------------  -----------------
         C           -0.006304026377    -1.353834470636     0.000000000000    12.000000000000
         C           -0.019553467877     1.465217107164     0.000000000000    12.000000000000
         H            1.935475401723    -2.112189454536     0.000000000000     1.007825032230
         H           -0.944416537977    -2.116569007836     1.677444584300     1.007825032230
         H           -0.944416537977    -2.116569007836    -1.677444584300     1.007825032230
         H            0.130619214223     2.509556749464    -1.748934895800     1.007825032230
         H            0.130619214223     2.509556749464     1.748934895800     1.007825032230

  Charge       = 0
  Multiplicity = 2
  Basis Set: ANONYMOUSF3D9BE05
    Blend: 6-31G_2DFP_
  Basis Set: (ANONYMOUSF3D9BE05 AUX)
    Blend: DEF2-UNIVERSAL-JKFIT

    Orbital Energies [Eh]
    ---------------------

    Alpha Occupied:

       1Ap   -10.179455     2Ap   -10.175064     3Ap    -0.751322
       4Ap    -0.604576     1App   -0.446315     5Ap    -0.409856
       6Ap    -0.385207     2App   -0.354214     7Ap    -0.197306

    Alpha Virtual:

       8Ap     0.098690     9Ap     0.127883     3App    0.140619
      10Ap     0.164826     4App    0.203146    11Ap     0.247255
      12Ap     0.430304     5App    0.440616    13Ap     0.446139
       6App    0.449493    14Ap     0.478436    15Ap     0.520700
      16Ap     0.543620     7App    0.574078    17Ap     0.593422
       8App    0.618283    18Ap     0.632873    19Ap     0.638967
       9App    0.649943    20Ap     0.741057    10App    0.822264
      11App    0.864280    21Ap     0.930638    22Ap     0.976985
      12App    1.024921    13App    1.071001    23Ap     1.083361
      24Ap     1.085889    25Ap     1.178481    14App    1.220462
      26Ap     1.252753    15App    1.323081    27Ap     1.344998
      28Ap     1.365286    29Ap     1.418602    16App    1.444240
      17App    1.509458    30Ap     1.523844    31Ap     1.603723
      32Ap     1.761491    33Ap     1.803723    18App    1.950135
      19App    2.049805    34Ap     2.101914    35Ap     2.697423
      36Ap     2.800377    20App    2.828716    21App    2.859047
      22App    2.927474    37Ap     2.962237    38Ap     2.986306
      23App    3.080810    39Ap     3.092960    24App    3.157804
      40Ap     3.170643    25App    3.199210    26App    3.300745
      41Ap     3.358918    42Ap     3.392324    43Ap     3.493259
      27App    3.500240    28App    3.582997    44Ap     3.592073
      45Ap     3.711730    29App    3.805451    46Ap     3.971674
      47Ap     4.023600    48Ap     4.084819    49Ap     4.129581
      30App    4.187676    31App    4.193990    50Ap     4.200480
      51Ap     4.294954    32App    4.365714    33App    4.485932
      52Ap     4.495838    53Ap     4.525823    34App    4.863638
      54Ap     4.922041    35App    5.146869    55Ap     5.167876
      56Ap     5.271507    36App    5.322789

    Beta Occupied:

       1Ap   -10.175892     2Ap   -10.165521     3Ap    -0.734579
       4Ap    -0.580088     1App   -0.440158     5Ap    -0.395093
       6Ap    -0.377282     2App   -0.349766

    Beta Virtual:

       7Ap    -0.036187     8Ap     0.101306     9Ap     0.139069
       3App    0.142221    10Ap     0.169741     4App    0.206761
      11Ap     0.253004     5App    0.441690    12Ap     0.444898
       6App    0.455191    13Ap     0.459204    14Ap     0.487278
      15Ap     0.548675     7App    0.587463    16Ap     0.592189
      17Ap     0.602111     8App    0.623645    18Ap     0.640923
      19Ap     0.644771     9App    0.657418    20Ap     0.766388
      10App    0.822086    11App    0.867342    21Ap     0.948416
      22Ap     0.988131    12App    1.033543    13App    1.078954
      23Ap     1.088466    24Ap     1.102731    25Ap     1.182155
      14App    1.228134    26Ap     1.265122    15App    1.329696
      27Ap     1.352462    28Ap     1.371624    29Ap     1.424593
      16App    1.451728    17App    1.514050    30Ap     1.535032
      31Ap     1.614981    32Ap     1.768018    33Ap     1.810052
      18App    1.954582    19App    2.059758    34Ap     2.107433
      35Ap     2.720609    36Ap     2.822072    20App    2.830602
      21App    2.875027    22App    2.929989    37Ap     2.988542
      38Ap     3.023485    23App    3.094313    39Ap     3.120413
      24App    3.175448    40Ap     3.210729    25App    3.218137
      26App    3.339535    41Ap     3.372353    42Ap     3.410022
      27App    3.520479    43Ap     3.535968    28App    3.599375
      44Ap     3.602237    45Ap     3.729915    29App    3.805753
      46Ap     3.982431    47Ap     4.032958    48Ap     4.091070
      49Ap     4.138969    30App    4.196697    31App    4.204211
      50Ap     4.210124    51Ap     4.302884    32App    4.370029
      33App    4.492914    52Ap     4.506575    53Ap     4.533039
      34App    4.865004    54Ap     4.926407    35App    5.150162
      55Ap     5.178765    56Ap     5.278675    36App    5.325350

    Final Occupation by Irrep:
             Ap   App
    DOCC [     6,    2 ]
    SOCC [     1,    0 ]

  @DF-UKS Final Energy:   -79.16618209482800

   => Energetics <=

    Nuclear Repulsion Energy =             36.9078098764881943
    One-Electron Energy =                -178.0311182683259119
    Two-Electron Energy =                  72.2362209634529790
    DFT Exchange-Correlation Energy =     -10.2790946664432639
    Empirical Dispersion Energy =           0.0000000000000000
    VV10 Nonlocal Energy =                  0.0000000000000000
    Total Energy =                        -79.1661820948280024

  UHF NO Occupations:
  HONO-2 :    2App 1.9997324
  HONO-1 :    6 Ap 1.9987126
  HONO-0 :    7 Ap 1.0000000
  LUNO+0 :    8 Ap 0.0012874
  LUNO+1 :    3App 0.0002676
  LUNO+2 :    9 Ap 0.0002558
  LUNO+3 :   10 Ap 0.0002226

Computation Completed

Properties will be evaluated at   0.000000,   0.000000,   0.000000 [a0]

Properties computed using the SCF density matrix

  Nuclear Dipole Moment: [e a0]
     X:     0.1527      Y:    -0.6579      Z:     0.0000

  Electronic Dipole Moment: [e a0]
     X:    -0.1098      Y:     0.5743      Z:     0.0000

  Dipole Moment: [e a0]
     X:     0.0430      Y:    -0.0836      Z:     0.0000     Total:     0.0940

  Dipole Moment: [D]
     X:     0.1092      Y:    -0.2125      Z:     0.0000     Total:     0.2389

*** tstop() called on n045 at Fri Nov  5 18:26:09 2021
Module time:
	user time   =      65.10 seconds =       1.08 minutes
	system time =       0.50 seconds =       0.01 minutes
	total time  =         66 seconds =       1.10 minutes
Total time:
	user time   =      65.10 seconds =       1.08 minutes
	system time =       0.50 seconds =       0.01 minutes
	total time  =         66 seconds =       1.10 minutes
Grab this energy -79.166182094828
    Psi4 stopped on: Friday, 05 November 2021 06:26PM
    Psi4 wall time for execution: 0:01:05.64

*** Psi4 exiting successfully. Buy a developer a beer!
