                               Psi4 1.4a2.dev629

  ==> Input File <==

--------------------------------------------------------------------------
import os
memory 14 GB

molecule {
 C   -0.0072024477   -1.3544026552    0.0001652991
 C   -0.0197915269    1.4655697939    0.0004021217
 H    1.9337650522   -2.1122779123   -0.0025855148
 H   -0.9435683903   -2.1156570561    1.6692754395
 H   -0.9488037703   -2.1160018997   -1.6668146442
 H    0.1329365320    2.5108455800   -1.7496862618
 H    0.1237171274    2.5102338817    1.7492435604
units bohr
0 2
}

basis {

assign 6-31g_2dfp_

[ 6-31g_2dfp_ ]

spherical

!----------------------------------------------------------------------
! Basis Set Exchange
! Version v0.8.13
! https://www.basissetexchange.org
!----------------------------------------------------------------------
!   Basis set: 6-31G(2df,p)
! Description: 6-31G(2df,p)
!        Role: orbital
!     Version: 0  (Data from the original Basis Set Exchange)
!----------------------------------------------------------------------

****
H     0
S    3   1.00
     18.7311370              0.03349460
      2.8253937              0.23472695
      0.6401217              0.81375733
S    1   1.00
      0.1612778              1.00000000
P    1   1.00
      1.5000000              1.0000000
P    1   1.00
      0.3750000              1.0000000
****
B     0
S    6   1.00
   2068.8823000              0.0018663
    310.6495700              0.0142515
     70.6830330              0.0695516
     19.8610800              0.2325729
      6.2993048              0.4670787
      2.1270270              0.3634314
SP   3   1.00
      4.7279710             -0.1303938              0.0745976
      1.1903377             -0.1307889              0.3078467
      0.3594117              1.1309444              0.7434568
SP   1   1.00
      0.1267512              1.0000000              1.0000000
D    1   1.00
      0.8020000              1.0000000
D    1   1.00
      0.2005000              1.0000000
F    1   1.00
      0.5000000              1.0000000
****
C     0
S    6   1.00
   3047.5249000              0.0018347
    457.3695100              0.0140373
    103.9486900              0.0688426
     29.2101550              0.2321844
      9.2866630              0.4679413
      3.1639270              0.3623120
SP   3   1.00
      7.8682724             -0.1193324              0.0689991
      1.8812885             -0.1608542              0.3164240
      0.5442493              1.1434564              0.7443083
SP   1   1.00
      0.1687144              1.0000000              1.0000000
D    1   1.00
      1.2520000              1.0000000
D    1   1.00
      0.3130000              1.0000000
F    1   1.00
      0.8000000              1.0000000
****
N     0
S    6   1.00
   4173.5110000              0.0018348
    627.4579000              0.0139950
    142.9021000              0.0685870
     40.2343300              0.2322410
     12.8202100              0.4690700
      4.3904370              0.3604550
SP   3   1.00
     11.6263580             -0.1149610              0.0675800
      2.7162800             -0.1691180              0.3239070
      0.7722180              1.1458520              0.7408950
SP   1   1.00
      0.2120313              1.0000000              1.0000000
D    1   1.00
      1.8260000              1.0000000
D    1   1.00
      0.4565000              1.0000000
F    1   1.00
      1.0000000              1.0000000
****
O     0
S    6   1.00
   5484.6717000              0.0018311
    825.2349500              0.0139501
    188.0469600              0.0684451
     52.9645000              0.2327143
     16.8975700              0.4701930
      5.7996353              0.3585209
SP   3   1.00
     15.5396160             -0.1107775              0.0708743
      3.5999336             -0.1480263              0.3397528
      1.0137618              1.1307670              0.7271586
SP   1   1.00
      0.2700058              1.0000000              1.0000000
D    1   1.00
      2.5840000              1.0000000
D    1   1.00
      0.6460000              1.0000000
F    1   1.00
      1.4000000              1.0000000
****
F     0
S    6   1.00
   7001.7130900              0.0018196169
   1051.3660900              0.0139160796
    239.2856900              0.0684053245
     67.3974453              0.233185760
     21.5199573              0.471267439
      7.40310130             0.356618546
SP   3   1.00
     20.8479528             -0.108506975            0.0716287243
      4.80830834            -0.146451658            0.3459121030
      1.34406986             1.128688580            0.7224699570
SP   1   1.00
      0.358151393            1.0000000              1.0000000
D    1   1.00
      3.5000000              1.0000000
D    1   1.00
      0.8750000              1.0000000
F    1   1.00
      1.8500000              1.0000000
****
Al     0
S    6   1.00
  13983.1000000              0.00194267
   2098.7500000              0.0148599
    477.7050000              0.0728494
    134.3600000              0.2468300
     42.8709000              0.4872580
     14.5189000              0.3234960
SP   6   1.00
    239.6680000             -0.00292619             0.00460285
     57.4419000             -0.0374080              0.0331990
     18.2859000             -0.1144870              0.1362820
      6.5991400              0.1156350              0.3304760
      2.4904900              0.6125950              0.4491460
      0.9445400              0.3937990              0.2657040
SP   3   1.00
      1.2779000             -0.2276060             -0.0175130
      0.3975900              0.00144583             0.2445330
      0.1600950              1.0927900              0.8049340
SP   1   1.00
      0.0556577              1.0000000              1.0000000
D    1   1.00
      0.6500000              1.0000000
D    1   1.00
      0.1625000              1.0000000
F    1   1.00
      0.2500000              1.0000000
****
Si     0
S    6   1.00
  16115.9000000              0.00195948
   2425.5800000              0.01492880
    553.8670000              0.07284780
    156.3400000              0.24613000
     50.0683000              0.48591400
     17.0178000              0.32500200
SP   6   1.00
    292.7180000             -0.00278094             0.00443826
     69.8731000             -0.03571460             0.03266790
     22.3363000             -0.11498500             0.13472100
      8.1503900              0.09356340             0.32867800
      3.1345800              0.60301700             0.44964000
      1.2254300              0.41895900             0.26137200
SP   3   1.00
      1.7273800             -0.24463000            -0.01779510
      0.5729220              0.00431572             0.25353900
      0.2221920              1.09818000             0.80066900
SP   1   1.00
      0.0778369              1.00000000             1.00000000
D    1   1.00
      0.9000000              1.0000000
D    1   1.00
      0.2250000              1.0000000
F    1   1.00
      0.3200000              1.0000000
****
P     0
S    6   1.00
  19413.3000000              0.0018516
   2909.4200000              0.0142062
    661.3640000              0.0699995
    185.7590000              0.2400790
     59.1943000              0.4847620
     20.0310000              0.3352000
SP   6   1.00
    339.4780000             -0.00278217             0.00456462
     81.0101000             -0.0360499              0.03369360
     25.8780000             -0.1166310              0.13975500
      9.4522100              0.0968328              0.33936200
      3.6656600              0.6144180              0.45092100
      1.4674600              0.4037980              0.23858600
SP   3   1.00
      2.1562300             -0.2529230             -0.01776530
      0.7489970              0.0328517              0.27405800
      0.2831450              1.0812500              0.78542100
SP   1   1.00
      0.0998317              1.0000000              1.00000000
D    1   1.00
      1.1000000              1.0000000
D    1   1.00
      0.2750000              1.0000000
F    1   1.00
      0.4500000              1.0000000
****
S     0
S    6   1.00
  21917.1000000              0.0018690
   3301.4900000              0.0142300
    754.1460000              0.0696960
    212.7110000              0.2384870
     67.9896000              0.4833070
     23.0515000              0.3380740
SP   6   1.00
    423.7350000             -0.0023767              0.0040610
    100.7100000             -0.0316930              0.0306810
     32.1599000             -0.1133170              0.1304520
     11.8079000              0.0560900              0.3272050
      4.6311000              0.5922550              0.4528510
      1.8702500              0.4550060              0.2560420
SP   3   1.00
      2.6158400             -0.2503740             -0.0145110
      0.9221670              0.0669570              0.3102630
      0.3412870              1.0545100              0.7544830
SP   1   1.00
      0.1171670              1.0000000              1.0000000
D    1   1.00
      1.3000000              1.0000000
D    1   1.00
      0.3250000              1.0000000
F    1   1.00
      0.5500000              1.0000000
****
Cl     0
S    6   1.00
  25180.1000000              0.0018330
   3780.3500000              0.0140340
    860.4740000              0.0690970
    242.1450000              0.2374520
     77.3349000              0.4830340
     26.2470000              0.3398560
SP   6   1.00
    491.7650000             -0.0022974              0.0039894
    116.9840000             -0.0307140              0.0303180
     37.4153000             -0.1125280              0.1298800
     13.7834000              0.0450160              0.3279510
      5.4521500              0.5893530              0.4535270
      2.2258800              0.4652060              0.2521540
SP   3   1.00
      3.1864900             -0.2518300             -0.0142990
      1.1442700              0.0615890              0.3235720
      0.4203770              1.0601800              0.7435070
SP   1   1.00
      0.1426570              1.0000000              1.0000000
D    1   1.00
      1.5000000              1.0000000
D    1   1.00
      0.3750000              1.0000000
F    1   1.00
      0.7000000              1.0000000
****
}

set {
reference uhf
freeze_core true
e_convergence 10
d_convergence 10
dft_spherical_points 1202
dft_radial_points 99
}

e = energy('b3lyp')

print_out('Grab this energy {0}'.format(e))
--------------------------------------------------------------------------

    Molecular point group: c1

    Geometry (in Bohr), charge = 0, multiplicity = 2:

       Center              X                  Y                   Z               Mass
    ------------   -----------------  -----------------  -----------------  -----------------
         C           -0.006391510036    -1.354430095977    -0.000049486593    12.000000000000
         C           -0.018980589236     1.465542353123     0.000187336007    12.000000000000
         H            1.934575989864    -2.112305353077    -0.002800300493     1.007825032230
         H           -0.942757452636    -2.115684496877     1.669060653807     1.007825032230
         H           -0.947992832636    -2.116029340477    -1.667029429893     1.007825032230
         H            0.133747469664     2.510818139223    -1.749901047493     1.007825032230
         H            0.124528065064     2.510206440923     1.749028774707     1.007825032230

  Charge       = 0
  Multiplicity = 2
  Basis Set: ANONYMOUSD0575B5E
    Blend: 6-31G_2DFP_
  Basis Set: (ANONYMOUSD0575B5E AUX)
    Blend: DEF2-UNIVERSAL-JKFIT

    Orbital Energies [Eh]
    ---------------------

    Alpha Occupied:

       1A    -10.179501     2A    -10.174209     3A     -0.751505
       4A     -0.604983     5A     -0.446308     6A     -0.410323
       7A     -0.385307     8A     -0.354362     9A     -0.197342

    Alpha Virtual:

      10A      0.099106    11A      0.127838    12A      0.141332
      13A      0.165310    14A      0.203387    15A      0.247272
      16A      0.430337    17A      0.440442    18A      0.446274
      19A      0.450072    20A      0.478825    21A      0.520667
      22A      0.543767    23A      0.574439    24A      0.594006
      25A      0.619077    26A      0.632827    27A      0.640402
      28A      0.650338    29A      0.741172    30A      0.822589
      31A      0.866069    32A      0.930887    33A      0.976670
      34A      1.025020    35A      1.071576    36A      1.083587
      37A      1.086074    38A      1.180875    39A      1.220817
      40A      1.252763    41A      1.323103    42A      1.345110
      43A      1.367861    44A      1.418564    45A      1.446616
      46A      1.509600    47A      1.524431    48A      1.603132
      49A      1.762007    50A      1.809410    51A      1.953745
      52A      2.049893    53A      2.101152    54A      2.697987
      55A      2.801048    56A      2.829047    57A      2.861313
      58A      2.928976    59A      2.962720    60A      2.985919
      61A      3.080405    62A      3.094019    63A      3.158658
      64A      3.170737    65A      3.198571    66A      3.300332
      67A      3.357361    68A      3.390659    69A      3.493732
      70A      3.498159    71A      3.581639    72A      3.596003
      73A      3.712608    74A      3.806680    75A      3.973431
      76A      4.023023    77A      4.089179    78A      4.128973
      79A      4.188632    80A      4.197720    81A      4.204744
      82A      4.295042    83A      4.369584    84A      4.491679
      85A      4.497871    86A      4.528231    87A      4.866226
      88A      4.924197    89A      5.147167    90A      5.167938
      91A      5.275199    92A      5.332953

    Beta Occupied:

       1A    -10.175032     2A    -10.165560     3A     -0.734864
       4A     -0.580383     5A     -0.440177     6A     -0.395657
       7A     -0.377336     8A     -0.349914

    Beta Virtual:

       9A     -0.036105    10A      0.101759    11A      0.139020
      12A      0.142956    13A      0.170167    14A      0.206973
      15A      0.253022    16A      0.441534    17A      0.445145
      18A      0.455744    19A      0.459255    20A      0.487498
      21A      0.548839    22A      0.588055    23A      0.592287
      24A      0.602735    25A      0.624263    26A      0.640897
      27A      0.646014    28A      0.657750    29A      0.766525
      30A      0.822385    31A      0.869107    32A      0.948629
      33A      0.987799    34A      1.033637    35A      1.079559
      36A      1.089367    37A      1.102339    38A      1.184441
      39A      1.228545    40A      1.265260    41A      1.329689
      42A      1.352635    43A      1.374112    44A      1.424526
      45A      1.454048    46A      1.514184    47A      1.535717
      48A      1.614301    49A      1.768624    50A      1.815554
      51A      1.958169    52A      2.059828    53A      2.106647
      54A      2.721202    55A      2.822803    56A      2.830956
      57A      2.877406    58A      2.931531    59A      2.989076
      60A      3.023087    61A      3.093684    62A      3.121427
      63A      3.176379    64A      3.210973    65A      3.217424
      66A      3.339074    67A      3.369573    68A      3.409611
      69A      3.518133    70A      3.536558    71A      3.598447
      72A      3.606099    73A      3.730817    74A      3.806977
      75A      3.984047    76A      4.032401    77A      4.095703
      78A      4.138414    79A      4.201071    80A      4.204652
      81A      4.213862    82A      4.303133    83A      4.373754
      84A      4.498553    85A      4.508457    86A      4.535480
      87A      4.867563    88A      4.928560    89A      5.150496
      90A      5.178811    91A      5.282294    92A      5.335460

    Final Occupation by Irrep:
              A
    DOCC [     8 ]
    SOCC [     1 ]

  @DF-UKS Final Energy:   -79.16615680746084

   => Energetics <=

    Nuclear Repulsion Energy =             36.9293024756523138
    One-Electron Energy =                -178.0714981573956095
    Two-Electron Energy =                  72.2572608907497624
    DFT Exchange-Correlation Energy =     -10.2812220164673125
    Empirical Dispersion Energy =           0.0000000000000000
    VV10 Nonlocal Energy =                  0.0000000000000000
    Total Energy =                        -79.1661568074608368

  UHF NO Occupations:
  HONO-2 :    7  A 1.9997318
  HONO-1 :    8  A 1.9987094
  HONO-0 :    9  A 1.0000000
  LUNO+0 :   10  A 0.0012906
  LUNO+1 :   11  A 0.0002682
  LUNO+2 :   12  A 0.0002537
  LUNO+3 :   13  A 0.0002225

Computation Completed

Properties will be evaluated at   0.000000,   0.000000,   0.000000 [a0]

Properties computed using the SCF density matrix

  Nuclear Dipole Moment: [e a0]
     X:     0.1499      Y:    -0.6563      Z:    -0.0008

  Electronic Dipole Moment: [e a0]
     X:    -0.1088      Y:     0.5714      Z:     0.0011

  Dipole Moment: [e a0]
     X:     0.0411      Y:    -0.0849      Z:     0.0003     Total:     0.0943

  Dipole Moment: [D]
     X:     0.1044      Y:    -0.2158      Z:     0.0008     Total:     0.2397

*** tstop() called on n079 at Fri Nov  5 19:09:46 2021
Module time:
	user time   =      43.74 seconds =       0.73 minutes
	system time =       0.53 seconds =       0.01 minutes
	total time  =         44 seconds =       0.73 minutes
Total time:
	user time   =      43.74 seconds =       0.73 minutes
	system time =       0.53 seconds =       0.01 minutes
	total time  =         44 seconds =       0.73 minutes
Grab this energy -79.16615680746084
    Psi4 stopped on: Friday, 05 November 2021 07:09PM
    Psi4 wall time for execution: 0:00:44.32

*** Psi4 exiting successfully. Buy a developer a beer!
