                               Psi4 1.4a2.dev629

  ==> Input File <==

--------------------------------------------------------------------------
import os
memory 14 GB

molecule {
 C   -0.0054770626   -1.3532709867   -0.0011499022
 C   -0.0193580769    1.4656129091   -0.0045895367
 H    1.9335563628   -2.1117560853    0.0008191659
 H   -0.9465112683   -2.1167547383    1.6776255340
 H   -0.9475121855   -2.1155582262   -1.6764868689
 H    0.1283458898    2.5093934235   -1.7470936026
 H    0.1280089171    2.5106434361    1.7508752104
units bohr
0 2
}

basis {

assign 6-31g_2dfp_

[ 6-31g_2dfp_ ]

spherical

!----------------------------------------------------------------------
! Basis Set Exchange
! Version v0.8.13
! https://www.basissetexchange.org
!----------------------------------------------------------------------
!   Basis set: 6-31G(2df,p)
! Description: 6-31G(2df,p)
!        Role: orbital
!     Version: 0  (Data from the original Basis Set Exchange)
!----------------------------------------------------------------------

****
H     0
S    3   1.00
     18.7311370              0.03349460
      2.8253937              0.23472695
      0.6401217              0.81375733
S    1   1.00
      0.1612778              1.00000000
P    1   1.00
      1.5000000              1.0000000
P    1   1.00
      0.3750000              1.0000000
****
B     0
S    6   1.00
   2068.8823000              0.0018663
    310.6495700              0.0142515
     70.6830330              0.0695516
     19.8610800              0.2325729
      6.2993048              0.4670787
      2.1270270              0.3634314
SP   3   1.00
      4.7279710             -0.1303938              0.0745976
      1.1903377             -0.1307889              0.3078467
      0.3594117              1.1309444              0.7434568
SP   1   1.00
      0.1267512              1.0000000              1.0000000
D    1   1.00
      0.8020000              1.0000000
D    1   1.00
      0.2005000              1.0000000
F    1   1.00
      0.5000000              1.0000000
****
C     0
S    6   1.00
   3047.5249000              0.0018347
    457.3695100              0.0140373
    103.9486900              0.0688426
     29.2101550              0.2321844
      9.2866630              0.4679413
      3.1639270              0.3623120
SP   3   1.00
      7.8682724             -0.1193324              0.0689991
      1.8812885             -0.1608542              0.3164240
      0.5442493              1.1434564              0.7443083
SP   1   1.00
      0.1687144              1.0000000              1.0000000
D    1   1.00
      1.2520000              1.0000000
D    1   1.00
      0.3130000              1.0000000
F    1   1.00
      0.8000000              1.0000000
****
N     0
S    6   1.00
   4173.5110000              0.0018348
    627.4579000              0.0139950
    142.9021000              0.0685870
     40.2343300              0.2322410
     12.8202100              0.4690700
      4.3904370              0.3604550
SP   3   1.00
     11.6263580             -0.1149610              0.0675800
      2.7162800             -0.1691180              0.3239070
      0.7722180              1.1458520              0.7408950
SP   1   1.00
      0.2120313              1.0000000              1.0000000
D    1   1.00
      1.8260000              1.0000000
D    1   1.00
      0.4565000              1.0000000
F    1   1.00
      1.0000000              1.0000000
****
O     0
S    6   1.00
   5484.6717000              0.0018311
    825.2349500              0.0139501
    188.0469600              0.0684451
     52.9645000              0.2327143
     16.8975700              0.4701930
      5.7996353              0.3585209
SP   3   1.00
     15.5396160             -0.1107775              0.0708743
      3.5999336             -0.1480263              0.3397528
      1.0137618              1.1307670              0.7271586
SP   1   1.00
      0.2700058              1.0000000              1.0000000
D    1   1.00
      2.5840000              1.0000000
D    1   1.00
      0.6460000              1.0000000
F    1   1.00
      1.4000000              1.0000000
****
F     0
S    6   1.00
   7001.7130900              0.0018196169
   1051.3660900              0.0139160796
    239.2856900              0.0684053245
     67.3974453              0.233185760
     21.5199573              0.471267439
      7.40310130             0.356618546
SP   3   1.00
     20.8479528             -0.108506975            0.0716287243
      4.80830834            -0.146451658            0.3459121030
      1.34406986             1.128688580            0.7224699570
SP   1   1.00
      0.358151393            1.0000000              1.0000000
D    1   1.00
      3.5000000              1.0000000
D    1   1.00
      0.8750000              1.0000000
F    1   1.00
      1.8500000              1.0000000
****
Al     0
S    6   1.00
  13983.1000000              0.00194267
   2098.7500000              0.0148599
    477.7050000              0.0728494
    134.3600000              0.2468300
     42.8709000              0.4872580
     14.5189000              0.3234960
SP   6   1.00
    239.6680000             -0.00292619             0.00460285
     57.4419000             -0.0374080              0.0331990
     18.2859000             -0.1144870              0.1362820
      6.5991400              0.1156350              0.3304760
      2.4904900              0.6125950              0.4491460
      0.9445400              0.3937990              0.2657040
SP   3   1.00
      1.2779000             -0.2276060             -0.0175130
      0.3975900              0.00144583             0.2445330
      0.1600950              1.0927900              0.8049340
SP   1   1.00
      0.0556577              1.0000000              1.0000000
D    1   1.00
      0.6500000              1.0000000
D    1   1.00
      0.1625000              1.0000000
F    1   1.00
      0.2500000              1.0000000
****
Si     0
S    6   1.00
  16115.9000000              0.00195948
   2425.5800000              0.01492880
    553.8670000              0.07284780
    156.3400000              0.24613000
     50.0683000              0.48591400
     17.0178000              0.32500200
SP   6   1.00
    292.7180000             -0.00278094             0.00443826
     69.8731000             -0.03571460             0.03266790
     22.3363000             -0.11498500             0.13472100
      8.1503900              0.09356340             0.32867800
      3.1345800              0.60301700             0.44964000
      1.2254300              0.41895900             0.26137200
SP   3   1.00
      1.7273800             -0.24463000            -0.01779510
      0.5729220              0.00431572             0.25353900
      0.2221920              1.09818000             0.80066900
SP   1   1.00
      0.0778369              1.00000000             1.00000000
D    1   1.00
      0.9000000              1.0000000
D    1   1.00
      0.2250000              1.0000000
F    1   1.00
      0.3200000              1.0000000
****
P     0
S    6   1.00
  19413.3000000              0.0018516
   2909.4200000              0.0142062
    661.3640000              0.0699995
    185.7590000              0.2400790
     59.1943000              0.4847620
     20.0310000              0.3352000
SP   6   1.00
    339.4780000             -0.00278217             0.00456462
     81.0101000             -0.0360499              0.03369360
     25.8780000             -0.1166310              0.13975500
      9.4522100              0.0968328              0.33936200
      3.6656600              0.6144180              0.45092100
      1.4674600              0.4037980              0.23858600
SP   3   1.00
      2.1562300             -0.2529230             -0.01776530
      0.7489970              0.0328517              0.27405800
      0.2831450              1.0812500              0.78542100
SP   1   1.00
      0.0998317              1.0000000              1.00000000
D    1   1.00
      1.1000000              1.0000000
D    1   1.00
      0.2750000              1.0000000
F    1   1.00
      0.4500000              1.0000000
****
S     0
S    6   1.00
  21917.1000000              0.0018690
   3301.4900000              0.0142300
    754.1460000              0.0696960
    212.7110000              0.2384870
     67.9896000              0.4833070
     23.0515000              0.3380740
SP   6   1.00
    423.7350000             -0.0023767              0.0040610
    100.7100000             -0.0316930              0.0306810
     32.1599000             -0.1133170              0.1304520
     11.8079000              0.0560900              0.3272050
      4.6311000              0.5922550              0.4528510
      1.8702500              0.4550060              0.2560420
SP   3   1.00
      2.6158400             -0.2503740             -0.0145110
      0.9221670              0.0669570              0.3102630
      0.3412870              1.0545100              0.7544830
SP   1   1.00
      0.1171670              1.0000000              1.0000000
D    1   1.00
      1.3000000              1.0000000
D    1   1.00
      0.3250000              1.0000000
F    1   1.00
      0.5500000              1.0000000
****
Cl     0
S    6   1.00
  25180.1000000              0.0018330
   3780.3500000              0.0140340
    860.4740000              0.0690970
    242.1450000              0.2374520
     77.3349000              0.4830340
     26.2470000              0.3398560
SP   6   1.00
    491.7650000             -0.0022974              0.0039894
    116.9840000             -0.0307140              0.0303180
     37.4153000             -0.1125280              0.1298800
     13.7834000              0.0450160              0.3279510
      5.4521500              0.5893530              0.4535270
      2.2258800              0.4652060              0.2521540
SP   3   1.00
      3.1864900             -0.2518300             -0.0142990
      1.1442700              0.0615890              0.3235720
      0.4203770              1.0601800              0.7435070
SP   1   1.00
      0.1426570              1.0000000              1.0000000
D    1   1.00
      1.5000000              1.0000000
D    1   1.00
      0.3750000              1.0000000
F    1   1.00
      0.7000000              1.0000000
****
}

set {
reference uhf
freeze_core true
e_convergence 10
d_convergence 10
dft_spherical_points 1202
dft_radial_points 99
}

e = energy('b3lyp')

print_out('Grab this energy {0}'.format(e))
--------------------------------------------------------------------------

    Molecular point group: c1

    Geometry (in Bohr), charge = 0, multiplicity = 2:

       Center              X                  Y                   Z               Mass
    ------------   -----------------  -----------------  -----------------  -----------------
         C           -0.005483308408    -1.353743118142     0.001022646606    12.000000000000
         C           -0.019364322708     1.465140777658    -0.002416987894    12.000000000000
         H            1.933550116992    -2.112228216742     0.002991714706     1.007825032230
         H           -0.946517514108    -2.117226869742     1.679798082806     1.007825032230
         H           -0.947518431308    -2.116030357642    -1.674314320094     1.007825032230
         H            0.128339643992     2.508921292058    -1.744921053794     1.007825032230
         H            0.128002671292     2.510171304658     1.753047759206     1.007825032230

  Charge       = 0
  Multiplicity = 2
  Basis Set: ANONYMOUSB990F695
    Blend: 6-31G_2DFP_
  Basis Set: (ANONYMOUSB990F695 AUX)
    Blend: DEF2-UNIVERSAL-JKFIT

    Orbital Energies [Eh]
    ---------------------

    Alpha Occupied:

       1A    -10.179440     2A    -10.175049     3A     -0.751336
       4A     -0.604581     5A     -0.446191     6A     -0.410159
       7A     -0.385229     8A     -0.353985     9A     -0.197332

    Alpha Virtual:

      10A      0.098701    11A      0.127892    12A      0.140427
      13A      0.165059    14A      0.203147    15A      0.247248
      16A      0.430254    17A      0.440724    18A      0.446153
      19A      0.449624    20A      0.478449    21A      0.520691
      22A      0.543579    23A      0.573963    24A      0.593432
      25A      0.618116    26A      0.633319    27A      0.638771
      28A      0.649987    29A      0.741066    30A      0.822275
      31A      0.864329    32A      0.930626    33A      0.976954
      34A      1.024756    35A      1.071183    36A      1.083260
      37A      1.085418    38A      1.179290    39A      1.220103
      40A      1.253081    41A      1.322667    42A      1.344806
      43A      1.365951    44A      1.418818    45A      1.444192
      46A      1.509425    47A      1.523618    48A      1.603690
      49A      1.762170    50A      1.803437    51A      1.949492
      52A      2.049925    53A      2.102509    54A      2.697533
      55A      2.800467    56A      2.828534    57A      2.858867
      58A      2.927619    59A      2.962370    60A      2.986212
      61A      3.080492    62A      3.092750    63A      3.158228
      64A      3.171003    65A      3.199436    66A      3.300354
      67A      3.358473    68A      3.392262    69A      3.493570
      70A      3.500102    71A      3.582483    72A      3.592503
      73A      3.711548    74A      3.806200    75A      3.971722
      76A      4.023564    77A      4.084775    78A      4.129463
      79A      4.188224    80A      4.193299    81A      4.200459
      82A      4.295086    83A      4.365225    84A      4.485963
      85A      4.497751    86A      4.525422    87A      4.863439
      88A      4.922131    89A      5.145031    90A      5.169828
      91A      5.271420    92A      5.322696

    Beta Occupied:

       1A    -10.175877     2A    -10.165503     3A     -0.734581
       4A     -0.580089     5A     -0.440013     6A     -0.395436
       7A     -0.377302     8A     -0.349552

    Beta Virtual:

       9A     -0.036181    10A      0.101313    11A      0.139062
      12A      0.142048    13A      0.169955    14A      0.206763
      15A      0.252989    16A      0.441723    17A      0.444908
      18A      0.455331    19A      0.459178    20A      0.487358
      21A      0.548649    22A      0.587258    23A      0.592201
      24A      0.602135    25A      0.623551    26A      0.641320
      27A      0.644587    28A      0.657471    29A      0.766395
      30A      0.822096    31A      0.867382    32A      0.948353
      33A      0.988101    34A      1.033312    35A      1.079190
      36A      1.088358    37A      1.102293    38A      1.182934
      39A      1.227839    40A      1.265476    41A      1.329200
      42A      1.352332    43A      1.372253    44A      1.424805
      45A      1.451697    46A      1.514074    47A      1.534752
      48A      1.614894    49A      1.768639    50A      1.809824
      51A      1.953947    52A      2.059876    53A      2.108026
      54A      2.720744    55A      2.822181    56A      2.830357
      57A      2.874915    58A      2.930136    59A      2.988640
      60A      3.023442    61A      3.094019    62A      3.120222
      63A      3.175811    64A      3.211062    65A      3.218422
      66A      3.339195    67A      3.371592    68A      3.410301
      69A      3.520325    70A      3.536256    71A      3.598729
      72A      3.602754    73A      3.729721    74A      3.806555
      75A      3.982513    76A      4.032810    77A      4.091047
      78A      4.138872    79A      4.196665    80A      4.204004
      81A      4.210071    82A      4.303009    83A      4.369524
      84A      4.493019    85A      4.508480    86A      4.532664
      87A      4.864805    88A      4.926450    89A      5.148664
      90A      5.180372    91A      5.278603    92A      5.325269

    Final Occupation by Irrep:
              A
    DOCC [     8 ]
    SOCC [     1 ]

  @DF-UKS Final Energy:   -79.16616735483487

   => Energetics <=

    Nuclear Repulsion Energy =             36.9088918017910785
    One-Electron Energy =                -178.0332484831829447
    Two-Electron Energy =                  72.2373429901273596
    DFT Exchange-Correlation Energy =     -10.2791536635703515
    Empirical Dispersion Energy =           0.0000000000000000
    VV10 Nonlocal Energy =                  0.0000000000000000
    Total Energy =                        -79.1661673548348688

  UHF NO Occupations:
  HONO-2 :    7  A 1.9997321
  HONO-1 :    8  A 1.9987115
  HONO-0 :    9  A 1.0000000
  LUNO+0 :   10  A 0.0012885
  LUNO+1 :   11  A 0.0002679
  LUNO+2 :   12  A 0.0002537
  LUNO+3 :   13  A 0.0002223

Computation Completed

Properties will be evaluated at   0.000000,   0.000000,   0.000000 [a0]

Properties computed using the SCF density matrix

  Nuclear Dipole Moment: [e a0]
     X:     0.1468      Y:    -0.6580      Z:     0.0082

  Electronic Dipole Moment: [e a0]
     X:    -0.1042      Y:     0.5746      Z:    -0.0093

  Dipole Moment: [e a0]
     X:     0.0426      Y:    -0.0834      Z:    -0.0011     Total:     0.0937

  Dipole Moment: [D]
     X:     0.1082      Y:    -0.2120      Z:    -0.0027     Total:     0.2380

*** tstop() called on n059 at Fri Nov  5 19:05:54 2021
Module time:
	user time   =      50.56 seconds =       0.84 minutes
	system time =       0.52 seconds =       0.01 minutes
	total time  =         51 seconds =       0.85 minutes
Total time:
	user time   =      50.56 seconds =       0.84 minutes
	system time =       0.52 seconds =       0.01 minutes
	total time  =         51 seconds =       0.85 minutes
Grab this energy -79.16616735483487
    Psi4 stopped on: Friday, 05 November 2021 07:05PM
    Psi4 wall time for execution: 0:00:51.12

*** Psi4 exiting successfully. Buy a developer a beer!
