                               Psi4 1.4a2.dev629

  ==> Input File <==

--------------------------------------------------------------------------
import os
memory 14 GB

molecule {
 C   -0.0054536191   -1.3541917698   -0.0011450436
 C   -0.0192827627    1.4704732135   -0.0045928347
 H    1.9279599978   -2.1122415360    0.0008188112
 H   -0.9437018817   -2.1172936561    1.6726632804
 H   -0.9446994137   -2.1160958107   -1.6715176004
 H    0.1282843756    2.5082171908   -1.7472264011
 H    0.1279458802    2.5094421005    1.7509997883
units bohr
0 2
}

basis {

assign 6-31g_2dfp_

[ 6-31g_2dfp_ ]

spherical

!----------------------------------------------------------------------
! Basis Set Exchange
! Version v0.8.13
! https://www.basissetexchange.org
!----------------------------------------------------------------------
!   Basis set: 6-31G(2df,p)
! Description: 6-31G(2df,p)
!        Role: orbital
!     Version: 0  (Data from the original Basis Set Exchange)
!----------------------------------------------------------------------

****
H     0
S    3   1.00
     18.7311370              0.03349460
      2.8253937              0.23472695
      0.6401217              0.81375733
S    1   1.00
      0.1612778              1.00000000
P    1   1.00
      1.5000000              1.0000000
P    1   1.00
      0.3750000              1.0000000
****
B     0
S    6   1.00
   2068.8823000              0.0018663
    310.6495700              0.0142515
     70.6830330              0.0695516
     19.8610800              0.2325729
      6.2993048              0.4670787
      2.1270270              0.3634314
SP   3   1.00
      4.7279710             -0.1303938              0.0745976
      1.1903377             -0.1307889              0.3078467
      0.3594117              1.1309444              0.7434568
SP   1   1.00
      0.1267512              1.0000000              1.0000000
D    1   1.00
      0.8020000              1.0000000
D    1   1.00
      0.2005000              1.0000000
F    1   1.00
      0.5000000              1.0000000
****
C     0
S    6   1.00
   3047.5249000              0.0018347
    457.3695100              0.0140373
    103.9486900              0.0688426
     29.2101550              0.2321844
      9.2866630              0.4679413
      3.1639270              0.3623120
SP   3   1.00
      7.8682724             -0.1193324              0.0689991
      1.8812885             -0.1608542              0.3164240
      0.5442493              1.1434564              0.7443083
SP   1   1.00
      0.1687144              1.0000000              1.0000000
D    1   1.00
      1.2520000              1.0000000
D    1   1.00
      0.3130000              1.0000000
F    1   1.00
      0.8000000              1.0000000
****
N     0
S    6   1.00
   4173.5110000              0.0018348
    627.4579000              0.0139950
    142.9021000              0.0685870
     40.2343300              0.2322410
     12.8202100              0.4690700
      4.3904370              0.3604550
SP   3   1.00
     11.6263580             -0.1149610              0.0675800
      2.7162800             -0.1691180              0.3239070
      0.7722180              1.1458520              0.7408950
SP   1   1.00
      0.2120313              1.0000000              1.0000000
D    1   1.00
      1.8260000              1.0000000
D    1   1.00
      0.4565000              1.0000000
F    1   1.00
      1.0000000              1.0000000
****
O     0
S    6   1.00
   5484.6717000              0.0018311
    825.2349500              0.0139501
    188.0469600              0.0684451
     52.9645000              0.2327143
     16.8975700              0.4701930
      5.7996353              0.3585209
SP   3   1.00
     15.5396160             -0.1107775              0.0708743
      3.5999336             -0.1480263              0.3397528
      1.0137618              1.1307670              0.7271586
SP   1   1.00
      0.2700058              1.0000000              1.0000000
D    1   1.00
      2.5840000              1.0000000
D    1   1.00
      0.6460000              1.0000000
F    1   1.00
      1.4000000              1.0000000
****
F     0
S    6   1.00
   7001.7130900              0.0018196169
   1051.3660900              0.0139160796
    239.2856900              0.0684053245
     67.3974453              0.233185760
     21.5199573              0.471267439
      7.40310130             0.356618546
SP   3   1.00
     20.8479528             -0.108506975            0.0716287243
      4.80830834            -0.146451658            0.3459121030
      1.34406986             1.128688580            0.7224699570
SP   1   1.00
      0.358151393            1.0000000              1.0000000
D    1   1.00
      3.5000000              1.0000000
D    1   1.00
      0.8750000              1.0000000
F    1   1.00
      1.8500000              1.0000000
****
Al     0
S    6   1.00
  13983.1000000              0.00194267
   2098.7500000              0.0148599
    477.7050000              0.0728494
    134.3600000              0.2468300
     42.8709000              0.4872580
     14.5189000              0.3234960
SP   6   1.00
    239.6680000             -0.00292619             0.00460285
     57.4419000             -0.0374080              0.0331990
     18.2859000             -0.1144870              0.1362820
      6.5991400              0.1156350              0.3304760
      2.4904900              0.6125950              0.4491460
      0.9445400              0.3937990              0.2657040
SP   3   1.00
      1.2779000             -0.2276060             -0.0175130
      0.3975900              0.00144583             0.2445330
      0.1600950              1.0927900              0.8049340
SP   1   1.00
      0.0556577              1.0000000              1.0000000
D    1   1.00
      0.6500000              1.0000000
D    1   1.00
      0.1625000              1.0000000
F    1   1.00
      0.2500000              1.0000000
****
Si     0
S    6   1.00
  16115.9000000              0.00195948
   2425.5800000              0.01492880
    553.8670000              0.07284780
    156.3400000              0.24613000
     50.0683000              0.48591400
     17.0178000              0.32500200
SP   6   1.00
    292.7180000             -0.00278094             0.00443826
     69.8731000             -0.03571460             0.03266790
     22.3363000             -0.11498500             0.13472100
      8.1503900              0.09356340             0.32867800
      3.1345800              0.60301700             0.44964000
      1.2254300              0.41895900             0.26137200
SP   3   1.00
      1.7273800             -0.24463000            -0.01779510
      0.5729220              0.00431572             0.25353900
      0.2221920              1.09818000             0.80066900
SP   1   1.00
      0.0778369              1.00000000             1.00000000
D    1   1.00
      0.9000000              1.0000000
D    1   1.00
      0.2250000              1.0000000
F    1   1.00
      0.3200000              1.0000000
****
P     0
S    6   1.00
  19413.3000000              0.0018516
   2909.4200000              0.0142062
    661.3640000              0.0699995
    185.7590000              0.2400790
     59.1943000              0.4847620
     20.0310000              0.3352000
SP   6   1.00
    339.4780000             -0.00278217             0.00456462
     81.0101000             -0.0360499              0.03369360
     25.8780000             -0.1166310              0.13975500
      9.4522100              0.0968328              0.33936200
      3.6656600              0.6144180              0.45092100
      1.4674600              0.4037980              0.23858600
SP   3   1.00
      2.1562300             -0.2529230             -0.01776530
      0.7489970              0.0328517              0.27405800
      0.2831450              1.0812500              0.78542100
SP   1   1.00
      0.0998317              1.0000000              1.00000000
D    1   1.00
      1.1000000              1.0000000
D    1   1.00
      0.2750000              1.0000000
F    1   1.00
      0.4500000              1.0000000
****
S     0
S    6   1.00
  21917.1000000              0.0018690
   3301.4900000              0.0142300
    754.1460000              0.0696960
    212.7110000              0.2384870
     67.9896000              0.4833070
     23.0515000              0.3380740
SP   6   1.00
    423.7350000             -0.0023767              0.0040610
    100.7100000             -0.0316930              0.0306810
     32.1599000             -0.1133170              0.1304520
     11.8079000              0.0560900              0.3272050
      4.6311000              0.5922550              0.4528510
      1.8702500              0.4550060              0.2560420
SP   3   1.00
      2.6158400             -0.2503740             -0.0145110
      0.9221670              0.0669570              0.3102630
      0.3412870              1.0545100              0.7544830
SP   1   1.00
      0.1171670              1.0000000              1.0000000
D    1   1.00
      1.3000000              1.0000000
D    1   1.00
      0.3250000              1.0000000
F    1   1.00
      0.5500000              1.0000000
****
Cl     0
S    6   1.00
  25180.1000000              0.0018330
   3780.3500000              0.0140340
    860.4740000              0.0690970
    242.1450000              0.2374520
     77.3349000              0.4830340
     26.2470000              0.3398560
SP   6   1.00
    491.7650000             -0.0022974              0.0039894
    116.9840000             -0.0307140              0.0303180
     37.4153000             -0.1125280              0.1298800
     13.7834000              0.0450160              0.3279510
      5.4521500              0.5893530              0.4535270
      2.2258800              0.4652060              0.2521540
SP   3   1.00
      3.1864900             -0.2518300             -0.0142990
      1.1442700              0.0615890              0.3235720
      0.4203770              1.0601800              0.7435070
SP   1   1.00
      0.1426570              1.0000000              1.0000000
D    1   1.00
      1.5000000              1.0000000
D    1   1.00
      0.3750000              1.0000000
F    1   1.00
      0.7000000              1.0000000
****
}

set {
reference uhf
freeze_core true
e_convergence 10
d_convergence 10
dft_spherical_points 1202
dft_radial_points 99
}

e = energy('b3lyp')

print_out('Grab this energy {0}'.format(e))
--------------------------------------------------------------------------

    Molecular point group: c1

    Geometry (in Bohr), charge = 0, multiplicity = 2:

       Center              X                  Y                   Z               Mass
    ------------   -----------------  -----------------  -----------------  -----------------
         C           -0.005497247643    -1.356155127551     0.001026914466    12.000000000000
         C           -0.019326391243     1.468509855749    -0.002420876634    12.000000000000
         H            1.927916369257    -2.114204893751     0.002990769266     1.007825032230
         H           -0.943745510243    -2.119257013851     1.674835238466     1.007825032230
         H           -0.944743042243    -2.118059168451    -1.669345642334     1.007825032230
         H            0.128240747057     2.506253833049    -1.745054443034     1.007825032230
         H            0.127902251657     2.507478742749     1.753171746366     1.007825032230

  Charge       = 0
  Multiplicity = 2
  Basis Set: ANONYMOUSF4FC78DD
    Blend: 6-31G_2DFP_
  Basis Set: (ANONYMOUSF4FC78DD AUX)
    Blend: DEF2-UNIVERSAL-JKFIT

    Orbital Energies [Eh]
    ---------------------

    Alpha Occupied:

       1A    -10.179375     2A    -10.174243     3A     -0.751107
       4A     -0.605375     5A     -0.446498     6A     -0.410207
       7A     -0.384682     8A     -0.354745     9A     -0.197541

    Alpha Virtual:

      10A      0.099074    11A      0.128214    12A      0.141422
      13A      0.165829    14A      0.203354    15A      0.246419
      16A      0.430069    17A      0.440434    18A      0.446909
      19A      0.450202    20A      0.478404    21A      0.520756
      22A      0.544084    23A      0.574134    24A      0.593387
      25A      0.619083    26A      0.634054    27A      0.639798
      28A      0.650852    29A      0.741388    30A      0.822516
      31A      0.866028    32A      0.930907    33A      0.976823
      34A      1.025586    35A      1.071052    36A      1.082916
      37A      1.086710    38A      1.180169    39A      1.221725
      40A      1.253510    41A      1.323280    42A      1.343500
      43A      1.367267    44A      1.419779    45A      1.445548
      46A      1.510686    47A      1.522344    48A      1.604657
      49A      1.765818    50A      1.806736    51A      1.952117
      52A      2.049747    53A      2.105228    54A      2.697817
      55A      2.799732    56A      2.828969    57A      2.860335
      58A      2.929075    59A      2.963750    60A      2.987095
      61A      3.080413    62A      3.092606    63A      3.160449
      64A      3.169791    65A      3.199040    66A      3.300236
      67A      3.358275    68A      3.389880    69A      3.494507
      70A      3.499172    71A      3.579763    72A      3.593717
      73A      3.711731    74A      3.806494    75A      3.972131
      76A      4.022256    77A      4.087137    78A      4.130631
      79A      4.190929    80A      4.198942    81A      4.205361
      82A      4.296468    83A      4.368149    84A      4.489241
      85A      4.498815    86A      4.525072    87A      4.868018
      88A      4.923514    89A      5.146781    90A      5.174979
      91A      5.279140    92A      5.329451

    Beta Occupied:

       1A    -10.175061     2A    -10.165432     3A     -0.734431
       4A     -0.580785     5A     -0.440305     6A     -0.395643
       7A     -0.376745     8A     -0.350331

    Beta Virtual:

       9A     -0.036167    10A      0.101697    11A      0.139369
      12A      0.143027    13A      0.170643    14A      0.206941
      15A      0.252189    16A      0.441421    17A      0.445247
      18A      0.455933    19A      0.459588    20A      0.487088
      21A      0.548859    22A      0.587620    23A      0.592630
      24A      0.602225    25A      0.624386    26A      0.641999
      27A      0.645589    28A      0.658294    29A      0.766715
      30A      0.822307    31A      0.869040    32A      0.948636
      33A      0.987940    34A      1.034126    35A      1.079079
      36A      1.090399    37A      1.101191    38A      1.183802
      39A      1.229466    40A      1.265805    41A      1.329864
      42A      1.350952    43A      1.373565    44A      1.425698
      45A      1.453036    46A      1.515366    47A      1.533323
      48A      1.616104    49A      1.772282    50A      1.812999
      51A      1.956529    52A      2.059680    53A      2.110704
      54A      2.721046    55A      2.821538    56A      2.830886
      57A      2.876463    58A      2.931577    59A      2.990300
      60A      3.024077    61A      3.093678    62A      3.119877
      63A      3.178223    64A      3.209950    65A      3.217813
      66A      3.339288    67A      3.370908    68A      3.408633
      69A      3.519272    70A      3.537290    71A      3.596189
      72A      3.603937    73A      3.729858    74A      3.806800
      75A      3.982998    76A      4.031418    77A      4.093509
      78A      4.140119    79A      4.203362    80A      4.205745
      81A      4.214550    82A      4.304474    83A      4.372357
      84A      4.496183    85A      4.509206    86A      4.532480
      87A      4.869374    88A      4.927789    89A      5.150355
      90A      5.185588    91A      5.286224    92A      5.331985

    Final Occupation by Irrep:
              A
    DOCC [     8 ]
    SOCC [     1 ]

  @DF-UKS Final Energy:   -79.16612132887147

   => Energetics <=

    Nuclear Repulsion Energy =             36.9151438014059607
    One-Electron Energy =                -178.0431312413732314
    Two-Electron Energy =                  72.2434017218354825
    DFT Exchange-Correlation Energy =     -10.2815356107396614
    Empirical Dispersion Energy =           0.0000000000000000
    VV10 Nonlocal Energy =                  0.0000000000000000
    Total Energy =                        -79.1661213288714691

  UHF NO Occupations:
  HONO-2 :    7  A 1.9997339
  HONO-1 :    8  A 1.9987101
  HONO-0 :    9  A 1.0000000
  LUNO+0 :   10  A 0.0012899
  LUNO+1 :   11  A 0.0002661
  LUNO+2 :   12  A 0.0002484
  LUNO+3 :   13  A 0.0002227

Computation Completed

Properties will be evaluated at   0.000000,   0.000000,   0.000000 [a0]

Properties computed using the SCF density matrix

  Nuclear Dipole Moment: [e a0]
     X:     0.1466      Y:    -0.6637      Z:     0.0082

  Electronic Dipole Moment: [e a0]
     X:    -0.1039      Y:     0.5796      Z:    -0.0093

  Dipole Moment: [e a0]
     X:     0.0427      Y:    -0.0841      Z:    -0.0011     Total:     0.0943

  Dipole Moment: [D]
     X:     0.1086      Y:    -0.2137      Z:    -0.0027     Total:     0.2397

*** tstop() called on n045 at Fri Nov  5 18:44:20 2021
Module time:
	user time   =      61.47 seconds =       1.02 minutes
	system time =       0.47 seconds =       0.01 minutes
	total time  =         62 seconds =       1.03 minutes
Total time:
	user time   =      61.47 seconds =       1.02 minutes
	system time =       0.47 seconds =       0.01 minutes
	total time  =         62 seconds =       1.03 minutes
Grab this energy -79.16612132887147
    Psi4 stopped on: Friday, 05 November 2021 06:44PM
    Psi4 wall time for execution: 0:01:01.98

*** Psi4 exiting successfully. Buy a developer a beer!
