                               Psi4 1.4a2.dev629

  ==> Input File <==

--------------------------------------------------------------------------
import os
memory 14 GB

molecule {
 C   -0.0044936899   -1.3543268524    0.0011492010
 C   -0.0203278262    1.4653526505    0.0045893533
 H    1.9290433194   -2.1200799461   -0.0008196233
 H   -0.9429457706   -2.1111897538    1.6721025777
 H   -0.9419467993   -2.1123874177   -1.6732398782
 H    0.1256947343    2.5110964535   -1.7508797168
 H    0.1260286088    2.5098445981    1.7470980863
units bohr
0 2
}

basis {

assign 6-31g_2dfp_

[ 6-31g_2dfp_ ]

spherical

!----------------------------------------------------------------------
! Basis Set Exchange
! Version v0.8.13
! https://www.basissetexchange.org
!----------------------------------------------------------------------
!   Basis set: 6-31G(2df,p)
! Description: 6-31G(2df,p)
!        Role: orbital
!     Version: 0  (Data from the original Basis Set Exchange)
!----------------------------------------------------------------------

****
H     0
S    3   1.00
     18.7311370              0.03349460
      2.8253937              0.23472695
      0.6401217              0.81375733
S    1   1.00
      0.1612778              1.00000000
P    1   1.00
      1.5000000              1.0000000
P    1   1.00
      0.3750000              1.0000000
****
B     0
S    6   1.00
   2068.8823000              0.0018663
    310.6495700              0.0142515
     70.6830330              0.0695516
     19.8610800              0.2325729
      6.2993048              0.4670787
      2.1270270              0.3634314
SP   3   1.00
      4.7279710             -0.1303938              0.0745976
      1.1903377             -0.1307889              0.3078467
      0.3594117              1.1309444              0.7434568
SP   1   1.00
      0.1267512              1.0000000              1.0000000
D    1   1.00
      0.8020000              1.0000000
D    1   1.00
      0.2005000              1.0000000
F    1   1.00
      0.5000000              1.0000000
****
C     0
S    6   1.00
   3047.5249000              0.0018347
    457.3695100              0.0140373
    103.9486900              0.0688426
     29.2101550              0.2321844
      9.2866630              0.4679413
      3.1639270              0.3623120
SP   3   1.00
      7.8682724             -0.1193324              0.0689991
      1.8812885             -0.1608542              0.3164240
      0.5442493              1.1434564              0.7443083
SP   1   1.00
      0.1687144              1.0000000              1.0000000
D    1   1.00
      1.2520000              1.0000000
D    1   1.00
      0.3130000              1.0000000
F    1   1.00
      0.8000000              1.0000000
****
N     0
S    6   1.00
   4173.5110000              0.0018348
    627.4579000              0.0139950
    142.9021000              0.0685870
     40.2343300              0.2322410
     12.8202100              0.4690700
      4.3904370              0.3604550
SP   3   1.00
     11.6263580             -0.1149610              0.0675800
      2.7162800             -0.1691180              0.3239070
      0.7722180              1.1458520              0.7408950
SP   1   1.00
      0.2120313              1.0000000              1.0000000
D    1   1.00
      1.8260000              1.0000000
D    1   1.00
      0.4565000              1.0000000
F    1   1.00
      1.0000000              1.0000000
****
O     0
S    6   1.00
   5484.6717000              0.0018311
    825.2349500              0.0139501
    188.0469600              0.0684451
     52.9645000              0.2327143
     16.8975700              0.4701930
      5.7996353              0.3585209
SP   3   1.00
     15.5396160             -0.1107775              0.0708743
      3.5999336             -0.1480263              0.3397528
      1.0137618              1.1307670              0.7271586
SP   1   1.00
      0.2700058              1.0000000              1.0000000
D    1   1.00
      2.5840000              1.0000000
D    1   1.00
      0.6460000              1.0000000
F    1   1.00
      1.4000000              1.0000000
****
F     0
S    6   1.00
   7001.7130900              0.0018196169
   1051.3660900              0.0139160796
    239.2856900              0.0684053245
     67.3974453              0.233185760
     21.5199573              0.471267439
      7.40310130             0.356618546
SP   3   1.00
     20.8479528             -0.108506975            0.0716287243
      4.80830834            -0.146451658            0.3459121030
      1.34406986             1.128688580            0.7224699570
SP   1   1.00
      0.358151393            1.0000000              1.0000000
D    1   1.00
      3.5000000              1.0000000
D    1   1.00
      0.8750000              1.0000000
F    1   1.00
      1.8500000              1.0000000
****
Al     0
S    6   1.00
  13983.1000000              0.00194267
   2098.7500000              0.0148599
    477.7050000              0.0728494
    134.3600000              0.2468300
     42.8709000              0.4872580
     14.5189000              0.3234960
SP   6   1.00
    239.6680000             -0.00292619             0.00460285
     57.4419000             -0.0374080              0.0331990
     18.2859000             -0.1144870              0.1362820
      6.5991400              0.1156350              0.3304760
      2.4904900              0.6125950              0.4491460
      0.9445400              0.3937990              0.2657040
SP   3   1.00
      1.2779000             -0.2276060             -0.0175130
      0.3975900              0.00144583             0.2445330
      0.1600950              1.0927900              0.8049340
SP   1   1.00
      0.0556577              1.0000000              1.0000000
D    1   1.00
      0.6500000              1.0000000
D    1   1.00
      0.1625000              1.0000000
F    1   1.00
      0.2500000              1.0000000
****
Si     0
S    6   1.00
  16115.9000000              0.00195948
   2425.5800000              0.01492880
    553.8670000              0.07284780
    156.3400000              0.24613000
     50.0683000              0.48591400
     17.0178000              0.32500200
SP   6   1.00
    292.7180000             -0.00278094             0.00443826
     69.8731000             -0.03571460             0.03266790
     22.3363000             -0.11498500             0.13472100
      8.1503900              0.09356340             0.32867800
      3.1345800              0.60301700             0.44964000
      1.2254300              0.41895900             0.26137200
SP   3   1.00
      1.7273800             -0.24463000            -0.01779510
      0.5729220              0.00431572             0.25353900
      0.2221920              1.09818000             0.80066900
SP   1   1.00
      0.0778369              1.00000000             1.00000000
D    1   1.00
      0.9000000              1.0000000
D    1   1.00
      0.2250000              1.0000000
F    1   1.00
      0.3200000              1.0000000
****
P     0
S    6   1.00
  19413.3000000              0.0018516
   2909.4200000              0.0142062
    661.3640000              0.0699995
    185.7590000              0.2400790
     59.1943000              0.4847620
     20.0310000              0.3352000
SP   6   1.00
    339.4780000             -0.00278217             0.00456462
     81.0101000             -0.0360499              0.03369360
     25.8780000             -0.1166310              0.13975500
      9.4522100              0.0968328              0.33936200
      3.6656600              0.6144180              0.45092100
      1.4674600              0.4037980              0.23858600
SP   3   1.00
      2.1562300             -0.2529230             -0.01776530
      0.7489970              0.0328517              0.27405800
      0.2831450              1.0812500              0.78542100
SP   1   1.00
      0.0998317              1.0000000              1.00000000
D    1   1.00
      1.1000000              1.0000000
D    1   1.00
      0.2750000              1.0000000
F    1   1.00
      0.4500000              1.0000000
****
S     0
S    6   1.00
  21917.1000000              0.0018690
   3301.4900000              0.0142300
    754.1460000              0.0696960
    212.7110000              0.2384870
     67.9896000              0.4833070
     23.0515000              0.3380740
SP   6   1.00
    423.7350000             -0.0023767              0.0040610
    100.7100000             -0.0316930              0.0306810
     32.1599000             -0.1133170              0.1304520
     11.8079000              0.0560900              0.3272050
      4.6311000              0.5922550              0.4528510
      1.8702500              0.4550060              0.2560420
SP   3   1.00
      2.6158400             -0.2503740             -0.0145110
      0.9221670              0.0669570              0.3102630
      0.3412870              1.0545100              0.7544830
SP   1   1.00
      0.1171670              1.0000000              1.0000000
D    1   1.00
      1.3000000              1.0000000
D    1   1.00
      0.3250000              1.0000000
F    1   1.00
      0.5500000              1.0000000
****
Cl     0
S    6   1.00
  25180.1000000              0.0018330
   3780.3500000              0.0140340
    860.4740000              0.0690970
    242.1450000              0.2374520
     77.3349000              0.4830340
     26.2470000              0.3398560
SP   6   1.00
    491.7650000             -0.0022974              0.0039894
    116.9840000             -0.0307140              0.0303180
     37.4153000             -0.1125280              0.1298800
     13.7834000              0.0450160              0.3279510
      5.4521500              0.5893530              0.4535270
      2.2258800              0.4652060              0.2521540
SP   3   1.00
      3.1864900             -0.2518300             -0.0142990
      1.1442700              0.0615890              0.3235720
      0.4203770              1.0601800              0.7435070
SP   1   1.00
      0.1426570              1.0000000              1.0000000
D    1   1.00
      1.5000000              1.0000000
D    1   1.00
      0.3750000              1.0000000
F    1   1.00
      0.7000000              1.0000000
****
}

set {
reference uhf
freeze_core true
e_convergence 10
d_convergence 10
dft_spherical_points 1202
dft_radial_points 99
}

e = energy('b3lyp')

print_out('Grab this energy {0}'.format(e))
--------------------------------------------------------------------------

    Molecular point group: c1

    Geometry (in Bohr), charge = 0, multiplicity = 2:

       Center              X                  Y                   Z               Mass
    ------------   -----------------  -----------------  -----------------  -----------------
         C           -0.004505092575    -1.354300791538    -0.001023012955    12.000000000000
         C           -0.020339228875     1.465378711362     0.002417139345    12.000000000000
         H            1.929031916725    -2.120053885238    -0.002991837255     1.007825032230
         H           -0.942957173275    -2.111163692938     1.669930363745     1.007825032230
         H           -0.941958201975    -2.112361356838    -1.675412092155     1.007825032230
         H            0.125683331625     2.511122514362    -1.753051930755     1.007825032230
         H            0.126017206125     2.509870658962     1.744925872345     1.007825032230

  Charge       = 0
  Multiplicity = 2
  Basis Set: ANONYMOUS0035B1E2
    Blend: 6-31G_2DFP_
  Basis Set: (ANONYMOUS0035B1E2 AUX)
    Blend: DEF2-UNIVERSAL-JKFIT

    Orbital Energies [Eh]
    ---------------------

    Alpha Occupied:

       1A    -10.179463     2A    -10.174173     3A     -0.751557
       4A     -0.605034     5A     -0.446526     6A     -0.410193
       7A     -0.385197     8A     -0.354477     9A     -0.197390

    Alpha Virtual:

      10A      0.099040    11A      0.127939    12A      0.141249
      13A      0.165737    14A      0.203373    15A      0.247223
      16A      0.430317    17A      0.440641    18A      0.446330
      19A      0.449605    20A      0.478961    21A      0.520931
      22A      0.543530    23A      0.574172    24A      0.594184
      25A      0.619067    26A      0.633915    27A      0.639852
      28A      0.650536    29A      0.741403    30A      0.822962
      31A      0.865868    32A      0.930327    33A      0.977748
      34A      1.024099    35A      1.071881    36A      1.083684
      37A      1.085999    38A      1.179272    39A      1.220515
      40A      1.255041    41A      1.323938    42A      1.344156
      43A      1.367143    44A      1.419360    45A      1.446581
      46A      1.510004    47A      1.524485    48A      1.603796
      49A      1.763792    50A      1.807530    51A      1.952651
      52A      2.050439    53A      2.102782    54A      2.697487
      55A      2.801623    56A      2.829332    57A      2.860664
      58A      2.928699    59A      2.963205    60A      2.986526
      61A      3.080223    62A      3.092255    63A      3.158050
      64A      3.171488    65A      3.199041    66A      3.300432
      67A      3.360180    68A      3.388848    69A      3.494115
      70A      3.499800    71A      3.582017    72A      3.595178
      73A      3.712378    74A      3.807602    75A      3.972746
      76A      4.023344    77A      4.088700    78A      4.128895
      79A      4.189348    80A      4.198505    81A      4.204636
      82A      4.294773    83A      4.369291    84A      4.491160
      85A      4.498670    86A      4.529805    87A      4.865676
      88A      4.924441    89A      5.145859    90A      5.170329
      91A      5.279017    92A      5.330489

    Beta Occupied:

       1A    -10.174997     2A    -10.165525     3A     -0.734908
       4A     -0.580431     5A     -0.440395     6A     -0.395476
       7A     -0.377295     8A     -0.349999

    Beta Virtual:

       9A     -0.036193    10A      0.101695    11A      0.139079
      12A      0.142890    13A      0.170633    14A      0.206964
      15A      0.252959    16A      0.441652    17A      0.445159
      18A      0.455275    19A      0.459228    20A      0.487860
      21A      0.548827    22A      0.587740    23A      0.592312
      24A      0.602859    25A      0.624307    26A      0.641885
      27A      0.645587    28A      0.657969    29A      0.766778
      30A      0.822748    31A      0.868918    32A      0.948038
      33A      0.988990    34A      1.032588    35A      1.079950
      36A      1.088824    37A      1.102859    38A      1.182818
      39A      1.228268    40A      1.267463    41A      1.330597
      42A      1.351621    43A      1.373437    44A      1.425307
      45A      1.453996    46A      1.514647    47A      1.535671
      48A      1.615014    49A      1.770390    50A      1.813711
      51A      1.957088    52A      2.060368    53A      2.108302
      54A      2.720694    55A      2.823383    56A      2.831321
      57A      2.876641    58A      2.931225    59A      2.989825
      60A      3.023499    61A      3.093615    62A      3.119679
      63A      3.175763    64A      3.211597    65A      3.217892
      66A      3.339147    67A      3.371797    68A      3.408171
      69A      3.520285    70A      3.537230    71A      3.598310
      72A      3.605280    73A      3.730579    74A      3.807878
      75A      3.983854    76A      4.031999    77A      4.095108
      78A      4.138409    79A      4.203068    80A      4.204015
      81A      4.213971    82A      4.302694    83A      4.373528
      84A      4.498164    85A      4.509371    86A      4.537114
      87A      4.867022    88A      4.928789    89A      5.149534
      90A      5.180848    91A      5.286110    92A      5.333038

    Final Occupation by Irrep:
              A
    DOCC [     8 ]
    SOCC [     1 ]

  @DF-UKS Final Energy:   -79.16615088407787

   => Energetics <=

    Nuclear Repulsion Energy =             36.9334464306868000
    One-Electron Energy =                -178.0793286419150832
    Two-Electron Energy =                  72.2612004709129394
    DFT Exchange-Correlation Energy =     -10.2814691437625143
    Empirical Dispersion Energy =           0.0000000000000000
    VV10 Nonlocal Energy =                  0.0000000000000000
    Total Energy =                        -79.1661508840778652

  UHF NO Occupations:
  HONO-2 :    7  A 1.9997319
  HONO-1 :    8  A 1.9987110
  HONO-0 :    9  A 1.0000000
  LUNO+0 :   10  A 0.0012890
  LUNO+1 :   11  A 0.0002681
  LUNO+2 :   12  A 0.0002525
  LUNO+3 :   13  A 0.0002228

Computation Completed

Properties will be evaluated at   0.000000,   0.000000,   0.000000 [a0]

Properties computed using the SCF density matrix

  Nuclear Dipole Moment: [e a0]
     X:     0.1468      Y:    -0.6561      Z:    -0.0082

  Electronic Dipole Moment: [e a0]
     X:    -0.1050      Y:     0.5714      Z:     0.0093

  Dipole Moment: [e a0]
     X:     0.0417      Y:    -0.0848      Z:     0.0011     Total:     0.0945

  Dipole Moment: [D]
     X:     0.1061      Y:    -0.2155      Z:     0.0027     Total:     0.2402

*** tstop() called on n079 at Fri Nov  5 19:06:46 2021
Module time:
	user time   =      43.62 seconds =       0.73 minutes
	system time =       0.57 seconds =       0.01 minutes
	total time  =         44 seconds =       0.73 minutes
Total time:
	user time   =      43.62 seconds =       0.73 minutes
	system time =       0.57 seconds =       0.01 minutes
	total time  =         44 seconds =       0.73 minutes
Grab this energy -79.16615088407787
    Psi4 stopped on: Friday, 05 November 2021 07:06PM
    Psi4 wall time for execution: 0:00:44.24

*** Psi4 exiting successfully. Buy a developer a beer!
