                               Psi4 1.4a2.dev629

  ==> Input File <==

--------------------------------------------------------------------------
import os
memory 14 GB

molecule {
 C   -0.0030924001   -1.3554313219    0.0000000000
 C   -0.0176252228    1.4653341007    0.0000000000
 H    1.9223905776   -2.1116215513    0.0000000000
 H   -0.9426704690   -2.1160820074    1.6670314229
 H   -0.9426704690   -2.1160820074   -1.6670314229
 H    0.1273602799    2.5110962598   -1.7500550037
 H    0.1273602799    2.5110962598    1.7500550037
units bohr
0 2
}

basis {

assign 6-31g_2dfp_

[ 6-31g_2dfp_ ]

spherical

!----------------------------------------------------------------------
! Basis Set Exchange
! Version v0.8.13
! https://www.basissetexchange.org
!----------------------------------------------------------------------
!   Basis set: 6-31G(2df,p)
! Description: 6-31G(2df,p)
!        Role: orbital
!     Version: 0  (Data from the original Basis Set Exchange)
!----------------------------------------------------------------------

****
H     0
S    3   1.00
     18.7311370              0.03349460
      2.8253937              0.23472695
      0.6401217              0.81375733
S    1   1.00
      0.1612778              1.00000000
P    1   1.00
      1.5000000              1.0000000
P    1   1.00
      0.3750000              1.0000000
****
B     0
S    6   1.00
   2068.8823000              0.0018663
    310.6495700              0.0142515
     70.6830330              0.0695516
     19.8610800              0.2325729
      6.2993048              0.4670787
      2.1270270              0.3634314
SP   3   1.00
      4.7279710             -0.1303938              0.0745976
      1.1903377             -0.1307889              0.3078467
      0.3594117              1.1309444              0.7434568
SP   1   1.00
      0.1267512              1.0000000              1.0000000
D    1   1.00
      0.8020000              1.0000000
D    1   1.00
      0.2005000              1.0000000
F    1   1.00
      0.5000000              1.0000000
****
C     0
S    6   1.00
   3047.5249000              0.0018347
    457.3695100              0.0140373
    103.9486900              0.0688426
     29.2101550              0.2321844
      9.2866630              0.4679413
      3.1639270              0.3623120
SP   3   1.00
      7.8682724             -0.1193324              0.0689991
      1.8812885             -0.1608542              0.3164240
      0.5442493              1.1434564              0.7443083
SP   1   1.00
      0.1687144              1.0000000              1.0000000
D    1   1.00
      1.2520000              1.0000000
D    1   1.00
      0.3130000              1.0000000
F    1   1.00
      0.8000000              1.0000000
****
N     0
S    6   1.00
   4173.5110000              0.0018348
    627.4579000              0.0139950
    142.9021000              0.0685870
     40.2343300              0.2322410
     12.8202100              0.4690700
      4.3904370              0.3604550
SP   3   1.00
     11.6263580             -0.1149610              0.0675800
      2.7162800             -0.1691180              0.3239070
      0.7722180              1.1458520              0.7408950
SP   1   1.00
      0.2120313              1.0000000              1.0000000
D    1   1.00
      1.8260000              1.0000000
D    1   1.00
      0.4565000              1.0000000
F    1   1.00
      1.0000000              1.0000000
****
O     0
S    6   1.00
   5484.6717000              0.0018311
    825.2349500              0.0139501
    188.0469600              0.0684451
     52.9645000              0.2327143
     16.8975700              0.4701930
      5.7996353              0.3585209
SP   3   1.00
     15.5396160             -0.1107775              0.0708743
      3.5999336             -0.1480263              0.3397528
      1.0137618              1.1307670              0.7271586
SP   1   1.00
      0.2700058              1.0000000              1.0000000
D    1   1.00
      2.5840000              1.0000000
D    1   1.00
      0.6460000              1.0000000
F    1   1.00
      1.4000000              1.0000000
****
F     0
S    6   1.00
   7001.7130900              0.0018196169
   1051.3660900              0.0139160796
    239.2856900              0.0684053245
     67.3974453              0.233185760
     21.5199573              0.471267439
      7.40310130             0.356618546
SP   3   1.00
     20.8479528             -0.108506975            0.0716287243
      4.80830834            -0.146451658            0.3459121030
      1.34406986             1.128688580            0.7224699570
SP   1   1.00
      0.358151393            1.0000000              1.0000000
D    1   1.00
      3.5000000              1.0000000
D    1   1.00
      0.8750000              1.0000000
F    1   1.00
      1.8500000              1.0000000
****
Al     0
S    6   1.00
  13983.1000000              0.00194267
   2098.7500000              0.0148599
    477.7050000              0.0728494
    134.3600000              0.2468300
     42.8709000              0.4872580
     14.5189000              0.3234960
SP   6   1.00
    239.6680000             -0.00292619             0.00460285
     57.4419000             -0.0374080              0.0331990
     18.2859000             -0.1144870              0.1362820
      6.5991400              0.1156350              0.3304760
      2.4904900              0.6125950              0.4491460
      0.9445400              0.3937990              0.2657040
SP   3   1.00
      1.2779000             -0.2276060             -0.0175130
      0.3975900              0.00144583             0.2445330
      0.1600950              1.0927900              0.8049340
SP   1   1.00
      0.0556577              1.0000000              1.0000000
D    1   1.00
      0.6500000              1.0000000
D    1   1.00
      0.1625000              1.0000000
F    1   1.00
      0.2500000              1.0000000
****
Si     0
S    6   1.00
  16115.9000000              0.00195948
   2425.5800000              0.01492880
    553.8670000              0.07284780
    156.3400000              0.24613000
     50.0683000              0.48591400
     17.0178000              0.32500200
SP   6   1.00
    292.7180000             -0.00278094             0.00443826
     69.8731000             -0.03571460             0.03266790
     22.3363000             -0.11498500             0.13472100
      8.1503900              0.09356340             0.32867800
      3.1345800              0.60301700             0.44964000
      1.2254300              0.41895900             0.26137200
SP   3   1.00
      1.7273800             -0.24463000            -0.01779510
      0.5729220              0.00431572             0.25353900
      0.2221920              1.09818000             0.80066900
SP   1   1.00
      0.0778369              1.00000000             1.00000000
D    1   1.00
      0.9000000              1.0000000
D    1   1.00
      0.2250000              1.0000000
F    1   1.00
      0.3200000              1.0000000
****
P     0
S    6   1.00
  19413.3000000              0.0018516
   2909.4200000              0.0142062
    661.3640000              0.0699995
    185.7590000              0.2400790
     59.1943000              0.4847620
     20.0310000              0.3352000
SP   6   1.00
    339.4780000             -0.00278217             0.00456462
     81.0101000             -0.0360499              0.03369360
     25.8780000             -0.1166310              0.13975500
      9.4522100              0.0968328              0.33936200
      3.6656600              0.6144180              0.45092100
      1.4674600              0.4037980              0.23858600
SP   3   1.00
      2.1562300             -0.2529230             -0.01776530
      0.7489970              0.0328517              0.27405800
      0.2831450              1.0812500              0.78542100
SP   1   1.00
      0.0998317              1.0000000              1.00000000
D    1   1.00
      1.1000000              1.0000000
D    1   1.00
      0.2750000              1.0000000
F    1   1.00
      0.4500000              1.0000000
****
S     0
S    6   1.00
  21917.1000000              0.0018690
   3301.4900000              0.0142300
    754.1460000              0.0696960
    212.7110000              0.2384870
     67.9896000              0.4833070
     23.0515000              0.3380740
SP   6   1.00
    423.7350000             -0.0023767              0.0040610
    100.7100000             -0.0316930              0.0306810
     32.1599000             -0.1133170              0.1304520
     11.8079000              0.0560900              0.3272050
      4.6311000              0.5922550              0.4528510
      1.8702500              0.4550060              0.2560420
SP   3   1.00
      2.6158400             -0.2503740             -0.0145110
      0.9221670              0.0669570              0.3102630
      0.3412870              1.0545100              0.7544830
SP   1   1.00
      0.1171670              1.0000000              1.0000000
D    1   1.00
      1.3000000              1.0000000
D    1   1.00
      0.3250000              1.0000000
F    1   1.00
      0.5500000              1.0000000
****
Cl     0
S    6   1.00
  25180.1000000              0.0018330
   3780.3500000              0.0140340
    860.4740000              0.0690970
    242.1450000              0.2374520
     77.3349000              0.4830340
     26.2470000              0.3398560
SP   6   1.00
    491.7650000             -0.0022974              0.0039894
    116.9840000             -0.0307140              0.0303180
     37.4153000             -0.1125280              0.1298800
     13.7834000              0.0450160              0.3279510
      5.4521500              0.5893530              0.4535270
      2.2258800              0.4652060              0.2521540
SP   3   1.00
      3.1864900             -0.2518300             -0.0142990
      1.1442700              0.0615890              0.3235720
      0.4203770              1.0601800              0.7435070
SP   1   1.00
      0.1426570              1.0000000              1.0000000
D    1   1.00
      1.5000000              1.0000000
D    1   1.00
      0.3750000              1.0000000
F    1   1.00
      0.7000000              1.0000000
****
}

set {
reference uhf
freeze_core true
e_convergence 10
d_convergence 10
dft_spherical_points 1202
dft_radial_points 99
}

e = energy('b3lyp')

print_out('Grab this energy {0}'.format(e))
--------------------------------------------------------------------------

    Molecular point group: cs

    Geometry (in Bohr), charge = 0, multiplicity = 2:

       Center              X                  Y                   Z               Mass
    ------------   -----------------  -----------------  -----------------  -----------------
         C           -0.004657248750    -1.354980164745     0.000000000000    12.000000000000
         C           -0.019190071450     1.465785257855     0.000000000000    12.000000000000
         H            1.920825728950    -2.111170394145     0.000000000000     1.007825032230
         H           -0.944235317650    -2.115630850245     1.667031422900     1.007825032230
         H           -0.944235317650    -2.115630850245    -1.667031422900     1.007825032230
         H            0.125795431250     2.511547416955    -1.750055003700     1.007825032230
         H            0.125795431250     2.511547416955     1.750055003700     1.007825032230

  Charge       = 0
  Multiplicity = 2
  Basis Set: ANONYMOUSEA26DF62
    Blend: 6-31G_2DFP_
  Basis Set: (ANONYMOUSEA26DF62 AUX)
    Blend: DEF2-UNIVERSAL-JKFIT

    Orbital Energies [Eh]
    ---------------------

    Alpha Occupied:

       1Ap   -10.179537     2Ap   -10.173340     3Ap    -0.751723
       4Ap    -0.605392     1App   -0.446184     5Ap    -0.411227
       6Ap    -0.385255     2App   -0.354310     7Ap    -0.197396

    Alpha Virtual:

       8Ap     0.099386     9Ap     0.128076     3App    0.141391
      10Ap     0.166652     4App    0.203417    11Ap     0.247151
      12Ap     0.430371     5App    0.440652    13Ap     0.446401
       6App    0.450464    14Ap     0.478792    15Ap     0.521156
      16Ap     0.544067     7App    0.574404    17Ap     0.594700
       8App    0.619217    18Ap     0.635183    19Ap     0.640599
       9App    0.650342    20Ap     0.741453    10App    0.822919
      11App    0.867485    21Ap     0.931710    22Ap     0.977279
      12App    1.024909    13App    1.071979    23Ap     1.083502
      24Ap     1.085893    25Ap     1.181351    14App    1.220490
      26Ap     1.254684    15App    1.323917    27Ap     1.344577
      28Ap     1.369699    29Ap     1.421795    16App    1.447295
      17App    1.510442    30Ap     1.524411    31Ap     1.603006
      32Ap     1.767464    33Ap     1.809721    18App    1.954030
      19App    2.050062    34Ap     2.104360    35Ap     2.699222
      36Ap     2.801931    20App    2.829043    21App    2.861933
      22App    2.930132    37Ap     2.963838    38Ap     2.986845
      23App    3.079581    39Ap     3.093661    24App    3.159688
      40Ap     3.170813    25App    3.198909    26App    3.300114
      41Ap     3.357366    42Ap     3.387994    43Ap     3.494781
      27App    3.498782    28App    3.579211    44Ap     3.596900
      45Ap     3.712881    29App    3.807802    46Ap     3.975733
      47Ap     4.023784    48Ap     4.091488    49Ap     4.129261
      30App    4.189512    31App    4.204036    50Ap     4.209865
      51Ap     4.294378    32App    4.371945    33App    4.494048
      52Ap     4.505973    53Ap     4.528915    34App    4.866250
      54Ap     4.926858    35App    5.146189    55Ap     5.169569
      56Ap     5.286750    36App    5.335633

    Beta Occupied:

       1Ap   -10.174152     2Ap   -10.165587     3Ap    -0.735165
       4Ap    -0.580638     1App   -0.440050     5Ap    -0.396677
       6Ap    -0.377314     2App   -0.349851

    Beta Virtual:

       7Ap    -0.035965     8Ap     0.102074     9Ap     0.139224
       3App    0.143030    10Ap     0.171407     4App    0.207001
      11Ap     0.252895     5App    0.441704    12Ap     0.445144
       6App    0.456175    13Ap     0.459293    14Ap     0.487590
      15Ap     0.549537     7App    0.587979    16Ap     0.592563
      17Ap     0.603504     8App    0.624442    18Ap     0.642947
      19Ap     0.646276     9App    0.657743    20Ap     0.766854
      10App    0.822677    11App    0.870489    21Ap     0.949279
      22Ap     0.988503    12App    1.033517    13App    1.079985
      23Ap     1.089406    24Ap     1.102082    25Ap     1.184934
      14App    1.228290    26Ap     1.267031    15App    1.330419
      27Ap     1.352096    28Ap     1.376013    29Ap     1.427729
      16App    1.454762    17App    1.515023    30Ap     1.535709
      31Ap     1.614076    32Ap     1.774009    33Ap     1.815823
      18App    1.958448    19App    2.060002    34Ap     2.109861
      35Ap     2.722507    36Ap     2.823894    20App    2.830945
      21App    2.878051    22App    2.932680    37Ap     2.991218
      38Ap     3.023181    23App    3.092855    39Ap     3.120776
      24App    3.177491    40Ap     3.210981    25App    3.217921
      26App    3.338813    41Ap     3.368973    42Ap     3.407538
      27App    3.518402    43Ap     3.537986    28App    3.596320
      44Ap     3.607029    45Ap     3.731045    29App    3.808127
      46Ap     3.986146    47Ap     4.032975    48Ap     4.098059
      49Ap     4.138827    30App    4.203583    31App    4.209054
      50Ap     4.218847    51Ap     4.302411    32App    4.376131
      33App    4.500976    52Ap     4.516400    53Ap     4.536327
      34App    4.867584    54Ap     4.931099    35App    5.149507
      55Ap     5.180480    56Ap     5.293816    36App    5.338152

    Final Occupation by Irrep:
             Ap   App
    DOCC [     6,    2 ]
    SOCC [     1,    0 ]

  @DF-UKS Final Energy:   -79.16611885446960

   => Energetics <=

    Nuclear Repulsion Energy =             36.9519469279607051
    One-Electron Energy =                -178.1141587563746498
    Two-Electron Energy =                  72.2794901390642366
    DFT Exchange-Correlation Energy =     -10.2833971651198866
    Empirical Dispersion Energy =           0.0000000000000000
    VV10 Nonlocal Energy =                  0.0000000000000000
    Total Energy =                        -79.1661188544696017

  UHF NO Occupations:
  HONO-2 :    2App 1.9997310
  HONO-1 :    6 Ap 1.9987059
  HONO-0 :    7 Ap 1.0000000
  LUNO+0 :    8 Ap 0.0012941
  LUNO+1 :    3App 0.0002690
  LUNO+2 :    9 Ap 0.0002454
  LUNO+3 :   10 Ap 0.0002211

Computation Completed

Properties will be evaluated at   0.000000,   0.000000,   0.000000 [a0]

Properties computed using the SCF density matrix

  Nuclear Dipole Moment: [e a0]
     X:     0.1409      Y:    -0.6545      Z:     0.0000

  Electronic Dipole Moment: [e a0]
     X:    -0.0987      Y:     0.5681      Z:     0.0000

  Dipole Moment: [e a0]
     X:     0.0422      Y:    -0.0864      Z:     0.0000     Total:     0.0961

  Dipole Moment: [D]
     X:     0.1072      Y:    -0.2196      Z:     0.0000     Total:     0.2444

*** tstop() called on n044 at Fri Nov  5 18:24:54 2021
Module time:
	user time   =      65.17 seconds =       1.09 minutes
	system time =       0.45 seconds =       0.01 minutes
	total time  =         66 seconds =       1.10 minutes
Total time:
	user time   =      65.17 seconds =       1.09 minutes
	system time =       0.45 seconds =       0.01 minutes
	total time  =         66 seconds =       1.10 minutes
Grab this energy -79.1661188544696
    Psi4 stopped on: Friday, 05 November 2021 06:24PM
    Psi4 wall time for execution: 0:01:05.67

*** Psi4 exiting successfully. Buy a developer a beer!
