                               Psi4 1.4a2.dev629

  ==> Input File <==

--------------------------------------------------------------------------
import os
memory 14 GB

molecule {
 C   -0.0054714219   -1.3502479381   -0.0017027226
 C   -0.0194128133    1.4616454509   -0.0001325821
 H    1.9276107010   -2.1061446747   -0.0046274758
 H   -0.9479914684   -2.1113107474    1.6746518870
 H   -0.9398934583   -2.1105924820   -1.6686101757
 H    0.1283970804    2.5020922387   -1.7502634664
 H    0.1278139569    2.5028678846    1.7506845356
units bohr
0 2
}

basis {

assign 6-31g_2dfp_

[ 6-31g_2dfp_ ]

spherical

!----------------------------------------------------------------------
! Basis Set Exchange
! Version v0.8.13
! https://www.basissetexchange.org
!----------------------------------------------------------------------
!   Basis set: 6-31G(2df,p)
! Description: 6-31G(2df,p)
!        Role: orbital
!     Version: 0  (Data from the original Basis Set Exchange)
!----------------------------------------------------------------------

****
H     0
S    3   1.00
     18.7311370              0.03349460
      2.8253937              0.23472695
      0.6401217              0.81375733
S    1   1.00
      0.1612778              1.00000000
P    1   1.00
      1.5000000              1.0000000
P    1   1.00
      0.3750000              1.0000000
****
B     0
S    6   1.00
   2068.8823000              0.0018663
    310.6495700              0.0142515
     70.6830330              0.0695516
     19.8610800              0.2325729
      6.2993048              0.4670787
      2.1270270              0.3634314
SP   3   1.00
      4.7279710             -0.1303938              0.0745976
      1.1903377             -0.1307889              0.3078467
      0.3594117              1.1309444              0.7434568
SP   1   1.00
      0.1267512              1.0000000              1.0000000
D    1   1.00
      0.8020000              1.0000000
D    1   1.00
      0.2005000              1.0000000
F    1   1.00
      0.5000000              1.0000000
****
C     0
S    6   1.00
   3047.5249000              0.0018347
    457.3695100              0.0140373
    103.9486900              0.0688426
     29.2101550              0.2321844
      9.2866630              0.4679413
      3.1639270              0.3623120
SP   3   1.00
      7.8682724             -0.1193324              0.0689991
      1.8812885             -0.1608542              0.3164240
      0.5442493              1.1434564              0.7443083
SP   1   1.00
      0.1687144              1.0000000              1.0000000
D    1   1.00
      1.2520000              1.0000000
D    1   1.00
      0.3130000              1.0000000
F    1   1.00
      0.8000000              1.0000000
****
N     0
S    6   1.00
   4173.5110000              0.0018348
    627.4579000              0.0139950
    142.9021000              0.0685870
     40.2343300              0.2322410
     12.8202100              0.4690700
      4.3904370              0.3604550
SP   3   1.00
     11.6263580             -0.1149610              0.0675800
      2.7162800             -0.1691180              0.3239070
      0.7722180              1.1458520              0.7408950
SP   1   1.00
      0.2120313              1.0000000              1.0000000
D    1   1.00
      1.8260000              1.0000000
D    1   1.00
      0.4565000              1.0000000
F    1   1.00
      1.0000000              1.0000000
****
O     0
S    6   1.00
   5484.6717000              0.0018311
    825.2349500              0.0139501
    188.0469600              0.0684451
     52.9645000              0.2327143
     16.8975700              0.4701930
      5.7996353              0.3585209
SP   3   1.00
     15.5396160             -0.1107775              0.0708743
      3.5999336             -0.1480263              0.3397528
      1.0137618              1.1307670              0.7271586
SP   1   1.00
      0.2700058              1.0000000              1.0000000
D    1   1.00
      2.5840000              1.0000000
D    1   1.00
      0.6460000              1.0000000
F    1   1.00
      1.4000000              1.0000000
****
F     0
S    6   1.00
   7001.7130900              0.0018196169
   1051.3660900              0.0139160796
    239.2856900              0.0684053245
     67.3974453              0.233185760
     21.5199573              0.471267439
      7.40310130             0.356618546
SP   3   1.00
     20.8479528             -0.108506975            0.0716287243
      4.80830834            -0.146451658            0.3459121030
      1.34406986             1.128688580            0.7224699570
SP   1   1.00
      0.358151393            1.0000000              1.0000000
D    1   1.00
      3.5000000              1.0000000
D    1   1.00
      0.8750000              1.0000000
F    1   1.00
      1.8500000              1.0000000
****
Al     0
S    6   1.00
  13983.1000000              0.00194267
   2098.7500000              0.0148599
    477.7050000              0.0728494
    134.3600000              0.2468300
     42.8709000              0.4872580
     14.5189000              0.3234960
SP   6   1.00
    239.6680000             -0.00292619             0.00460285
     57.4419000             -0.0374080              0.0331990
     18.2859000             -0.1144870              0.1362820
      6.5991400              0.1156350              0.3304760
      2.4904900              0.6125950              0.4491460
      0.9445400              0.3937990              0.2657040
SP   3   1.00
      1.2779000             -0.2276060             -0.0175130
      0.3975900              0.00144583             0.2445330
      0.1600950              1.0927900              0.8049340
SP   1   1.00
      0.0556577              1.0000000              1.0000000
D    1   1.00
      0.6500000              1.0000000
D    1   1.00
      0.1625000              1.0000000
F    1   1.00
      0.2500000              1.0000000
****
Si     0
S    6   1.00
  16115.9000000              0.00195948
   2425.5800000              0.01492880
    553.8670000              0.07284780
    156.3400000              0.24613000
     50.0683000              0.48591400
     17.0178000              0.32500200
SP   6   1.00
    292.7180000             -0.00278094             0.00443826
     69.8731000             -0.03571460             0.03266790
     22.3363000             -0.11498500             0.13472100
      8.1503900              0.09356340             0.32867800
      3.1345800              0.60301700             0.44964000
      1.2254300              0.41895900             0.26137200
SP   3   1.00
      1.7273800             -0.24463000            -0.01779510
      0.5729220              0.00431572             0.25353900
      0.2221920              1.09818000             0.80066900
SP   1   1.00
      0.0778369              1.00000000             1.00000000
D    1   1.00
      0.9000000              1.0000000
D    1   1.00
      0.2250000              1.0000000
F    1   1.00
      0.3200000              1.0000000
****
P     0
S    6   1.00
  19413.3000000              0.0018516
   2909.4200000              0.0142062
    661.3640000              0.0699995
    185.7590000              0.2400790
     59.1943000              0.4847620
     20.0310000              0.3352000
SP   6   1.00
    339.4780000             -0.00278217             0.00456462
     81.0101000             -0.0360499              0.03369360
     25.8780000             -0.1166310              0.13975500
      9.4522100              0.0968328              0.33936200
      3.6656600              0.6144180              0.45092100
      1.4674600              0.4037980              0.23858600
SP   3   1.00
      2.1562300             -0.2529230             -0.01776530
      0.7489970              0.0328517              0.27405800
      0.2831450              1.0812500              0.78542100
SP   1   1.00
      0.0998317              1.0000000              1.00000000
D    1   1.00
      1.1000000              1.0000000
D    1   1.00
      0.2750000              1.0000000
F    1   1.00
      0.4500000              1.0000000
****
S     0
S    6   1.00
  21917.1000000              0.0018690
   3301.4900000              0.0142300
    754.1460000              0.0696960
    212.7110000              0.2384870
     67.9896000              0.4833070
     23.0515000              0.3380740
SP   6   1.00
    423.7350000             -0.0023767              0.0040610
    100.7100000             -0.0316930              0.0306810
     32.1599000             -0.1133170              0.1304520
     11.8079000              0.0560900              0.3272050
      4.6311000              0.5922550              0.4528510
      1.8702500              0.4550060              0.2560420
SP   3   1.00
      2.6158400             -0.2503740             -0.0145110
      0.9221670              0.0669570              0.3102630
      0.3412870              1.0545100              0.7544830
SP   1   1.00
      0.1171670              1.0000000              1.0000000
D    1   1.00
      1.3000000              1.0000000
D    1   1.00
      0.3250000              1.0000000
F    1   1.00
      0.5500000              1.0000000
****
Cl     0
S    6   1.00
  25180.1000000              0.0018330
   3780.3500000              0.0140340
    860.4740000              0.0690970
    242.1450000              0.2374520
     77.3349000              0.4830340
     26.2470000              0.3398560
SP   6   1.00
    491.7650000             -0.0022974              0.0039894
    116.9840000             -0.0307140              0.0303180
     37.4153000             -0.1125280              0.1298800
     13.7834000              0.0450160              0.3279510
      5.4521500              0.5893530              0.4535270
      2.2258800              0.4652060              0.2521540
SP   3   1.00
      3.1864900             -0.2518300             -0.0142990
      1.1442700              0.0615890              0.3235720
      0.4203770              1.0601800              0.7435070
SP   1   1.00
      0.1426570              1.0000000              1.0000000
D    1   1.00
      1.5000000              1.0000000
D    1   1.00
      0.3750000              1.0000000
F    1   1.00
      0.7000000              1.0000000
****
}

set {
reference uhf
freeze_core true
e_convergence 10
d_convergence 10
dft_spherical_points 1202
dft_radial_points 99
}

e = energy('b3lyp')

print_out('Grab this energy {0}'.format(e))
--------------------------------------------------------------------------

    Molecular point group: c1

    Geometry (in Bohr), charge = 0, multiplicity = 2:

       Center              X                  Y                   Z               Mass
    ------------   -----------------  -----------------  -----------------  -----------------
         C           -0.005459083522    -1.350362582334    -0.001008005033    12.000000000000
         C           -0.019400474922     1.461530806666     0.000562135467    12.000000000000
         H            1.927623039378    -2.106259318934    -0.003932758233     1.007825032230
         H           -0.947979130022    -2.111425391634     1.675346604567     1.007825032230
         H           -0.939881119922    -2.110707126234    -1.667915458133     1.007825032230
         H            0.128409418778     2.501977594466    -1.749568748833     1.007825032230
         H            0.127826295278     2.502753240366     1.751379253167     1.007825032230

  Charge       = 0
  Multiplicity = 2
  Basis Set: ANONYMOUS60F36969
    Blend: 6-31G_2DFP_
  Basis Set: (ANONYMOUS60F36969 AUX)
    Blend: DEF2-UNIVERSAL-JKFIT

    Orbital Energies [Eh]
    ---------------------

    Alpha Occupied:

       1A    -10.178923     2A    -10.173629     3A     -0.752486
       4A     -0.604721     5A     -0.446997     6A     -0.410988
       7A     -0.385535     8A     -0.354102     9A     -0.197034

    Alpha Virtual:

      10A      0.099011    11A      0.128494    12A      0.140985
      13A      0.165919    14A      0.203572    15A      0.248260
      16A      0.430741    17A      0.440728    18A      0.446207
      19A      0.449673    20A      0.478773    21A      0.521113
      22A      0.544019    23A      0.574610    24A      0.595153
      25A      0.618791    26A      0.634485    27A      0.640171
      28A      0.651126    29A      0.741477    30A      0.823403
      31A      0.866082    32A      0.932289    33A      0.976943
      34A      1.026440    35A      1.071897    36A      1.083847
      37A      1.087971    38A      1.180155    39A      1.220641
      40A      1.253774    41A      1.323510    42A      1.346821
      43A      1.367879    44A      1.421109    45A      1.446997
      46A      1.511095    47A      1.525665    48A      1.604304
      49A      1.765853    50A      1.808481    51A      1.953532
      52A      2.050167    53A      2.108091    54A      2.699422
      55A      2.802054    56A      2.829819    57A      2.860722
      58A      2.928612    59A      2.963490    60A      2.986632
      61A      3.080410    62A      3.093941    63A      3.158662
      64A      3.171984    65A      3.199059    66A      3.300714
      67A      3.359746    68A      3.390510    69A      3.492999
      70A      3.500849    71A      3.581640    72A      3.595738
      73A      3.716931    74A      3.813013    75A      3.976489
      76A      4.025427    77A      4.088733    78A      4.132506
      79A      4.190275    80A      4.199400    81A      4.206994
      82A      4.300626    83A      4.370739    84A      4.493015
      85A      4.505745    86A      4.532376    87A      4.866000
      88A      4.925651    89A      5.146611    90A      5.173577
      91A      5.280650    92A      5.335173

    Beta Occupied:

       1A    -10.174450     2A    -10.164995     3A     -0.735789
       4A     -0.580153     5A     -0.440834     6A     -0.396168
       7A     -0.377589     8A     -0.349648

    Beta Virtual:

       9A     -0.035970    10A      0.101687    11A      0.139580
      12A      0.142610    13A      0.170792    14A      0.207162
      15A      0.253929    16A      0.441834    17A      0.444741
      18A      0.455336    19A      0.459821    20A      0.487918
      21A      0.549913    22A      0.588047    23A      0.591969
      24A      0.603837    25A      0.624094    26A      0.642451
      27A      0.645861    28A      0.658545    29A      0.766757
      30A      0.823195    31A      0.869148    32A      0.949906
      33A      0.988172    34A      1.035065    35A      1.079954
      36A      1.091318    37A      1.102522    38A      1.183779
      39A      1.228396    40A      1.266128    41A      1.329986
      42A      1.354282    43A      1.374286    44A      1.427111
      45A      1.454560    46A      1.515701    47A      1.536728
      48A      1.615742    49A      1.772452    50A      1.814794
      51A      1.958037    52A      2.060098    53A      2.113646
      54A      2.722711    55A      2.823830    56A      2.831700
      57A      2.876652    58A      2.931197    59A      2.990142
      60A      3.023502    61A      3.093933    62A      3.121292
      63A      3.176510    64A      3.211788    65A      3.217976
      66A      3.339441    67A      3.372409    68A      3.408751
      69A      3.519798    70A      3.536135    71A      3.598964
      72A      3.606174    73A      3.735035    74A      3.813354
      75A      3.986832    76A      4.034241    77A      4.095749
      78A      4.142089    79A      4.203947    80A      4.205137
      81A      4.216416    82A      4.308682    83A      4.375060
      84A      4.500014    85A      4.516406    86A      4.539657
      87A      4.867353    88A      4.930015    89A      5.149906
      90A      5.184499    91A      5.287811    92A      5.337785

    Final Occupation by Irrep:
              A
    DOCC [     8 ]
    SOCC [     1 ]

  @DF-UKS Final Energy:   -79.16614165026382

   => Energetics <=

    Nuclear Repulsion Energy =             36.9933881738392998
    One-Electron Energy =                -178.1967292146903503
    Two-Electron Energy =                  72.3207980118831131
    DFT Exchange-Correlation Energy =     -10.2835986212958819
    Empirical Dispersion Energy =           0.0000000000000000
    VV10 Nonlocal Energy =                  0.0000000000000000
    Total Energy =                        -79.1661416502638247

  UHF NO Occupations:
  HONO-2 :    7  A 1.9997333
  HONO-1 :    8  A 1.9987164
  HONO-0 :    9  A 1.0000000
  LUNO+0 :   10  A 0.0012836
  LUNO+1 :   11  A 0.0002667
  LUNO+2 :   12  A 0.0002533
  LUNO+3 :   13  A 0.0002207

Computation Completed

Properties will be evaluated at   0.000000,   0.000000,   0.000000 [a0]

Properties computed using the SCF density matrix

  Nuclear Dipole Moment: [e a0]
     X:     0.1468      Y:    -0.6567      Z:     0.0026

  Electronic Dipole Moment: [e a0]
     X:    -0.1041      Y:     0.5714      Z:    -0.0042

  Dipole Moment: [e a0]
     X:     0.0427      Y:    -0.0852      Z:    -0.0015     Total:     0.0953

  Dipole Moment: [D]
     X:     0.1085      Y:    -0.2166      Z:    -0.0039     Total:     0.2423

*** tstop() called on n045 at Fri Nov  5 19:15:35 2021
Module time:
	user time   =      61.33 seconds =       1.02 minutes
	system time =       0.43 seconds =       0.01 minutes
	total time  =         62 seconds =       1.03 minutes
Total time:
	user time   =      61.33 seconds =       1.02 minutes
	system time =       0.43 seconds =       0.01 minutes
	total time  =         62 seconds =       1.03 minutes
Grab this energy -79.16614165026382
    Psi4 stopped on: Friday, 05 November 2021 07:15PM
    Psi4 wall time for execution: 0:01:01.81

*** Psi4 exiting successfully. Buy a developer a beer!
