                               Psi4 1.4a2.dev629

  ==> Input File <==

--------------------------------------------------------------------------
import os
memory 14 GB

molecule {
 C   -0.0054529593   -1.3545355502   -0.0011464067
 C   -0.0196323109    1.4666092007   -0.0045958461
 H    1.9286924399   -2.1126070240    0.0008185161
 H   -0.9439181403   -2.1168374260    1.6732422040
 H   -0.9449179246   -2.1156480210   -1.6720941759
 H    0.1283117523    2.5100561654   -1.7549107144
 H    0.1279697191    2.5112723873    1.7586864230
units bohr
0 2
}

basis {

assign 6-31g_2dfp_

[ 6-31g_2dfp_ ]

spherical

!----------------------------------------------------------------------
! Basis Set Exchange
! Version v0.8.13
! https://www.basissetexchange.org
!----------------------------------------------------------------------
!   Basis set: 6-31G(2df,p)
! Description: 6-31G(2df,p)
!        Role: orbital
!     Version: 0  (Data from the original Basis Set Exchange)
!----------------------------------------------------------------------

****
H     0
S    3   1.00
     18.7311370              0.03349460
      2.8253937              0.23472695
      0.6401217              0.81375733
S    1   1.00
      0.1612778              1.00000000
P    1   1.00
      1.5000000              1.0000000
P    1   1.00
      0.3750000              1.0000000
****
B     0
S    6   1.00
   2068.8823000              0.0018663
    310.6495700              0.0142515
     70.6830330              0.0695516
     19.8610800              0.2325729
      6.2993048              0.4670787
      2.1270270              0.3634314
SP   3   1.00
      4.7279710             -0.1303938              0.0745976
      1.1903377             -0.1307889              0.3078467
      0.3594117              1.1309444              0.7434568
SP   1   1.00
      0.1267512              1.0000000              1.0000000
D    1   1.00
      0.8020000              1.0000000
D    1   1.00
      0.2005000              1.0000000
F    1   1.00
      0.5000000              1.0000000
****
C     0
S    6   1.00
   3047.5249000              0.0018347
    457.3695100              0.0140373
    103.9486900              0.0688426
     29.2101550              0.2321844
      9.2866630              0.4679413
      3.1639270              0.3623120
SP   3   1.00
      7.8682724             -0.1193324              0.0689991
      1.8812885             -0.1608542              0.3164240
      0.5442493              1.1434564              0.7443083
SP   1   1.00
      0.1687144              1.0000000              1.0000000
D    1   1.00
      1.2520000              1.0000000
D    1   1.00
      0.3130000              1.0000000
F    1   1.00
      0.8000000              1.0000000
****
N     0
S    6   1.00
   4173.5110000              0.0018348
    627.4579000              0.0139950
    142.9021000              0.0685870
     40.2343300              0.2322410
     12.8202100              0.4690700
      4.3904370              0.3604550
SP   3   1.00
     11.6263580             -0.1149610              0.0675800
      2.7162800             -0.1691180              0.3239070
      0.7722180              1.1458520              0.7408950
SP   1   1.00
      0.2120313              1.0000000              1.0000000
D    1   1.00
      1.8260000              1.0000000
D    1   1.00
      0.4565000              1.0000000
F    1   1.00
      1.0000000              1.0000000
****
O     0
S    6   1.00
   5484.6717000              0.0018311
    825.2349500              0.0139501
    188.0469600              0.0684451
     52.9645000              0.2327143
     16.8975700              0.4701930
      5.7996353              0.3585209
SP   3   1.00
     15.5396160             -0.1107775              0.0708743
      3.5999336             -0.1480263              0.3397528
      1.0137618              1.1307670              0.7271586
SP   1   1.00
      0.2700058              1.0000000              1.0000000
D    1   1.00
      2.5840000              1.0000000
D    1   1.00
      0.6460000              1.0000000
F    1   1.00
      1.4000000              1.0000000
****
F     0
S    6   1.00
   7001.7130900              0.0018196169
   1051.3660900              0.0139160796
    239.2856900              0.0684053245
     67.3974453              0.233185760
     21.5199573              0.471267439
      7.40310130             0.356618546
SP   3   1.00
     20.8479528             -0.108506975            0.0716287243
      4.80830834            -0.146451658            0.3459121030
      1.34406986             1.128688580            0.7224699570
SP   1   1.00
      0.358151393            1.0000000              1.0000000
D    1   1.00
      3.5000000              1.0000000
D    1   1.00
      0.8750000              1.0000000
F    1   1.00
      1.8500000              1.0000000
****
Al     0
S    6   1.00
  13983.1000000              0.00194267
   2098.7500000              0.0148599
    477.7050000              0.0728494
    134.3600000              0.2468300
     42.8709000              0.4872580
     14.5189000              0.3234960
SP   6   1.00
    239.6680000             -0.00292619             0.00460285
     57.4419000             -0.0374080              0.0331990
     18.2859000             -0.1144870              0.1362820
      6.5991400              0.1156350              0.3304760
      2.4904900              0.6125950              0.4491460
      0.9445400              0.3937990              0.2657040
SP   3   1.00
      1.2779000             -0.2276060             -0.0175130
      0.3975900              0.00144583             0.2445330
      0.1600950              1.0927900              0.8049340
SP   1   1.00
      0.0556577              1.0000000              1.0000000
D    1   1.00
      0.6500000              1.0000000
D    1   1.00
      0.1625000              1.0000000
F    1   1.00
      0.2500000              1.0000000
****
Si     0
S    6   1.00
  16115.9000000              0.00195948
   2425.5800000              0.01492880
    553.8670000              0.07284780
    156.3400000              0.24613000
     50.0683000              0.48591400
     17.0178000              0.32500200
SP   6   1.00
    292.7180000             -0.00278094             0.00443826
     69.8731000             -0.03571460             0.03266790
     22.3363000             -0.11498500             0.13472100
      8.1503900              0.09356340             0.32867800
      3.1345800              0.60301700             0.44964000
      1.2254300              0.41895900             0.26137200
SP   3   1.00
      1.7273800             -0.24463000            -0.01779510
      0.5729220              0.00431572             0.25353900
      0.2221920              1.09818000             0.80066900
SP   1   1.00
      0.0778369              1.00000000             1.00000000
D    1   1.00
      0.9000000              1.0000000
D    1   1.00
      0.2250000              1.0000000
F    1   1.00
      0.3200000              1.0000000
****
P     0
S    6   1.00
  19413.3000000              0.0018516
   2909.4200000              0.0142062
    661.3640000              0.0699995
    185.7590000              0.2400790
     59.1943000              0.4847620
     20.0310000              0.3352000
SP   6   1.00
    339.4780000             -0.00278217             0.00456462
     81.0101000             -0.0360499              0.03369360
     25.8780000             -0.1166310              0.13975500
      9.4522100              0.0968328              0.33936200
      3.6656600              0.6144180              0.45092100
      1.4674600              0.4037980              0.23858600
SP   3   1.00
      2.1562300             -0.2529230             -0.01776530
      0.7489970              0.0328517              0.27405800
      0.2831450              1.0812500              0.78542100
SP   1   1.00
      0.0998317              1.0000000              1.00000000
D    1   1.00
      1.1000000              1.0000000
D    1   1.00
      0.2750000              1.0000000
F    1   1.00
      0.4500000              1.0000000
****
S     0
S    6   1.00
  21917.1000000              0.0018690
   3301.4900000              0.0142300
    754.1460000              0.0696960
    212.7110000              0.2384870
     67.9896000              0.4833070
     23.0515000              0.3380740
SP   6   1.00
    423.7350000             -0.0023767              0.0040610
    100.7100000             -0.0316930              0.0306810
     32.1599000             -0.1133170              0.1304520
     11.8079000              0.0560900              0.3272050
      4.6311000              0.5922550              0.4528510
      1.8702500              0.4550060              0.2560420
SP   3   1.00
      2.6158400             -0.2503740             -0.0145110
      0.9221670              0.0669570              0.3102630
      0.3412870              1.0545100              0.7544830
SP   1   1.00
      0.1171670              1.0000000              1.0000000
D    1   1.00
      1.3000000              1.0000000
D    1   1.00
      0.3250000              1.0000000
F    1   1.00
      0.5500000              1.0000000
****
Cl     0
S    6   1.00
  25180.1000000              0.0018330
   3780.3500000              0.0140340
    860.4740000              0.0690970
    242.1450000              0.2374520
     77.3349000              0.4830340
     26.2470000              0.3398560
SP   6   1.00
    491.7650000             -0.0022974              0.0039894
    116.9840000             -0.0307140              0.0303180
     37.4153000             -0.1125280              0.1298800
     13.7834000              0.0450160              0.3279510
      5.4521500              0.5893530              0.4535270
      2.2258800              0.4652060              0.2521540
SP   3   1.00
      3.1864900             -0.2518300             -0.0142990
      1.1442700              0.0615890              0.3235720
      0.4203770              1.0601800              0.7435070
SP   1   1.00
      0.1426570              1.0000000              1.0000000
D    1   1.00
      1.5000000              1.0000000
D    1   1.00
      0.3750000              1.0000000
F    1   1.00
      0.7000000              1.0000000
****
}

set {
reference uhf
freeze_core true
e_convergence 10
d_convergence 10
dft_spherical_points 1202
dft_radial_points 99
}

e = energy('b3lyp')

print_out('Grab this energy {0}'.format(e))
--------------------------------------------------------------------------

    Molecular point group: c1

    Geometry (in Bohr), charge = 0, multiplicity = 2:

       Center              X                  Y                   Z               Mass
    ------------   -----------------  -----------------  -----------------  -----------------
         C           -0.005364523171    -1.354906132727     0.001027207248    12.000000000000
         C           -0.019543874771     1.466238618173    -0.002422232152    12.000000000000
         H            1.928780876029    -2.112977606527     0.002992130048     1.007825032230
         H           -0.943829704171    -2.117208008527     1.675415817948     1.007825032230
         H           -0.944829488471    -2.116018603527    -1.669920561952     1.007825032230
         H            0.128400188429     2.509685582873    -1.752737100452     1.007825032230
         H            0.128058155229     2.510901804773     1.760860036948     1.007825032230

  Charge       = 0
  Multiplicity = 2
  Basis Set: ANONYMOUS41641898
    Blend: 6-31G_2DFP_
  Basis Set: (ANONYMOUS41641898 AUX)
    Blend: DEF2-UNIVERSAL-JKFIT

    Orbital Energies [Eh]
    ---------------------

    Alpha Occupied:

       1A    -10.180183     2A    -10.174314     3A     -0.751245
       4A     -0.604421     5A     -0.446053     6A     -0.410412
       7A     -0.384784     8A     -0.354146     9A     -0.197415

    Alpha Virtual:

      10A      0.098729    11A      0.127440    12A      0.140679
      13A      0.165664    14A      0.202866    15A      0.246734
      16A      0.430195    17A      0.440538    18A      0.446241
      19A      0.449995    20A      0.478421    21A      0.520874
      22A      0.543654    23A      0.573625    24A      0.593195
      25A      0.618331    26A      0.633699    27A      0.639468
      28A      0.649199    29A      0.741201    30A      0.821490
      31A      0.865769    32A      0.930947    33A      0.975465
      34A      1.024689    35A      1.070446    36A      1.082089
      37A      1.085912    38A      1.179923    39A      1.220336
      40A      1.253124    41A      1.322844    42A      1.344254
      43A      1.367104    44A      1.419509    45A      1.445253
      46A      1.507955    47A      1.523423    48A      1.599861
      49A      1.762663    50A      1.805630    51A      1.951564
      52A      2.044472    53A      2.102242    54A      2.698099
      55A      2.800715    56A      2.827759    57A      2.860032
      58A      2.928569    59A      2.962157    60A      2.986161
      61A      3.080889    62A      3.093801    63A      3.159218
      64A      3.170467    65A      3.198559    66A      3.301931
      67A      3.356920    68A      3.390707    69A      3.493968
      70A      3.499571    71A      3.580171    72A      3.594105
      73A      3.710943    74A      3.806209    75A      3.972726
      76A      4.021748    77A      4.084167    78A      4.127610
      79A      4.183940    80A      4.197280    81A      4.204061
      82A      4.292790    83A      4.368047    84A      4.487185
      85A      4.499361    86A      4.525335    87A      4.858039
      88A      4.923609    89A      5.133882    90A      5.166774
      91A      5.277930    92A      5.326947

    Beta Occupied:

       1A    -10.175134     2A    -10.166229     3A     -0.734642
       4A     -0.579728     5A     -0.439934     6A     -0.395772
       7A     -0.376860     8A     -0.349703

    Beta Virtual:

       9A     -0.036092    10A      0.101476    11A      0.138591
      12A      0.142343    13A      0.170501    14A      0.206476
      15A      0.252496    16A      0.441528    17A      0.445017
      18A      0.455700    19A      0.459182    20A      0.487032
      21A      0.548913    22A      0.587094    23A      0.592320
      24A      0.602007    25A      0.623531    26A      0.641641
      27A      0.645056    28A      0.656632    29A      0.766664
      30A      0.821236    31A      0.868797    32A      0.948597
      33A      0.986641    34A      1.033310    35A      1.078499
      36A      1.089608    37A      1.100404    38A      1.183518
      39A      1.228068    40A      1.265500    41A      1.329458
      42A      1.351722    43A      1.373437    44A      1.425481
      45A      1.452717    46A      1.512549    47A      1.534421
      48A      1.611215    49A      1.769185    50A      1.811803
      51A      1.955995    52A      2.054314    53A      2.107748
      54A      2.721345    55A      2.822597    56A      2.829622
      57A      2.876092    58A      2.931120    59A      2.989182
      60A      3.022852    61A      3.094219    62A      3.120901
      63A      3.177070    64A      3.210685    65A      3.218313
      66A      3.339960    67A      3.369432    68A      3.409022
      69A      3.519838    70A      3.537185    71A      3.596711
      72A      3.604258    73A      3.729290    74A      3.806503
      75A      3.983552    76A      4.030147    77A      4.091156
      78A      4.137107    79A      4.198238    80A      4.202085
      81A      4.213297    82A      4.300691    83A      4.372265
      84A      4.494025    85A      4.509956    86A      4.532663
      87A      4.859359    88A      4.927905    89A      5.137350
      90A      5.177416    91A      5.285027    92A      5.329480

    Final Occupation by Irrep:
              A
    DOCC [     8 ]
    SOCC [     1 ]

  @DF-UKS Final Energy:   -79.16615353614519

   => Energetics <=

    Nuclear Repulsion Energy =             36.8996965709760048
    One-Electron Energy =                -178.0156045830329106
    Two-Electron Energy =                  72.2287698859801282
    DFT Exchange-Correlation Energy =     -10.2790154100684159
    Empirical Dispersion Energy =           0.0000000000000000
    VV10 Nonlocal Energy =                  0.0000000000000000
    Total Energy =                        -79.1661535361451882

  UHF NO Occupations:
  HONO-2 :    7  A 1.9997290
  HONO-1 :    8  A 1.9987017
  HONO-0 :    9  A 1.0000000
  LUNO+0 :   10  A 0.0012983
  LUNO+1 :   11  A 0.0002710
  LUNO+2 :   12  A 0.0002508
  LUNO+3 :   13  A 0.0002234

Computation Completed

Properties will be evaluated at   0.000000,   0.000000,   0.000000 [a0]

Properties computed using the SCF density matrix

  Nuclear Dipole Moment: [e a0]
     X:     0.1471      Y:    -0.6576      Z:     0.0082

  Electronic Dipole Moment: [e a0]
     X:    -0.1047      Y:     0.5720      Z:    -0.0093

  Dipole Moment: [e a0]
     X:     0.0425      Y:    -0.0857      Z:    -0.0011     Total:     0.0956

  Dipole Moment: [D]
     X:     0.1080      Y:    -0.2177      Z:    -0.0028     Total:     0.2430

*** tstop() called on n070 at Fri Nov  5 19:06:28 2021
Module time:
	user time   =      51.48 seconds =       0.86 minutes
	system time =       0.68 seconds =       0.01 minutes
	total time  =         52 seconds =       0.87 minutes
Total time:
	user time   =      51.48 seconds =       0.86 minutes
	system time =       0.68 seconds =       0.01 minutes
	total time  =         52 seconds =       0.87 minutes
Grab this energy -79.16615353614519
    Psi4 stopped on: Friday, 05 November 2021 07:06PM
    Psi4 wall time for execution: 0:00:52.26

*** Psi4 exiting successfully. Buy a developer a beer!
