                               Psi4 1.4a2.dev629

  ==> Input File <==

--------------------------------------------------------------------------
import os
memory 14 GB

molecule {
 C   -0.0054537456   -1.3541945580    0.0000000000
 C   -0.0192843768    1.4704725222    0.0000000000
 H    1.9279609393   -2.1122441442   -0.0000000000
 H   -0.9442013588   -2.1166987538    1.6720900397
 H   -0.9442013588   -2.1166987538   -1.6720900397
 H    0.1281162386    2.5088367099   -1.7491105728
 H    0.1281162386    2.5088367099    1.7491105728
units bohr
0 2
}

basis {

assign 6-31g_2dfp_

[ 6-31g_2dfp_ ]

spherical

!----------------------------------------------------------------------
! Basis Set Exchange
! Version v0.8.13
! https://www.basissetexchange.org
!----------------------------------------------------------------------
!   Basis set: 6-31G(2df,p)
! Description: 6-31G(2df,p)
!        Role: orbital
!     Version: 0  (Data from the original Basis Set Exchange)
!----------------------------------------------------------------------

****
H     0
S    3   1.00
     18.7311370              0.03349460
      2.8253937              0.23472695
      0.6401217              0.81375733
S    1   1.00
      0.1612778              1.00000000
P    1   1.00
      1.5000000              1.0000000
P    1   1.00
      0.3750000              1.0000000
****
B     0
S    6   1.00
   2068.8823000              0.0018663
    310.6495700              0.0142515
     70.6830330              0.0695516
     19.8610800              0.2325729
      6.2993048              0.4670787
      2.1270270              0.3634314
SP   3   1.00
      4.7279710             -0.1303938              0.0745976
      1.1903377             -0.1307889              0.3078467
      0.3594117              1.1309444              0.7434568
SP   1   1.00
      0.1267512              1.0000000              1.0000000
D    1   1.00
      0.8020000              1.0000000
D    1   1.00
      0.2005000              1.0000000
F    1   1.00
      0.5000000              1.0000000
****
C     0
S    6   1.00
   3047.5249000              0.0018347
    457.3695100              0.0140373
    103.9486900              0.0688426
     29.2101550              0.2321844
      9.2866630              0.4679413
      3.1639270              0.3623120
SP   3   1.00
      7.8682724             -0.1193324              0.0689991
      1.8812885             -0.1608542              0.3164240
      0.5442493              1.1434564              0.7443083
SP   1   1.00
      0.1687144              1.0000000              1.0000000
D    1   1.00
      1.2520000              1.0000000
D    1   1.00
      0.3130000              1.0000000
F    1   1.00
      0.8000000              1.0000000
****
N     0
S    6   1.00
   4173.5110000              0.0018348
    627.4579000              0.0139950
    142.9021000              0.0685870
     40.2343300              0.2322410
     12.8202100              0.4690700
      4.3904370              0.3604550
SP   3   1.00
     11.6263580             -0.1149610              0.0675800
      2.7162800             -0.1691180              0.3239070
      0.7722180              1.1458520              0.7408950
SP   1   1.00
      0.2120313              1.0000000              1.0000000
D    1   1.00
      1.8260000              1.0000000
D    1   1.00
      0.4565000              1.0000000
F    1   1.00
      1.0000000              1.0000000
****
O     0
S    6   1.00
   5484.6717000              0.0018311
    825.2349500              0.0139501
    188.0469600              0.0684451
     52.9645000              0.2327143
     16.8975700              0.4701930
      5.7996353              0.3585209
SP   3   1.00
     15.5396160             -0.1107775              0.0708743
      3.5999336             -0.1480263              0.3397528
      1.0137618              1.1307670              0.7271586
SP   1   1.00
      0.2700058              1.0000000              1.0000000
D    1   1.00
      2.5840000              1.0000000
D    1   1.00
      0.6460000              1.0000000
F    1   1.00
      1.4000000              1.0000000
****
F     0
S    6   1.00
   7001.7130900              0.0018196169
   1051.3660900              0.0139160796
    239.2856900              0.0684053245
     67.3974453              0.233185760
     21.5199573              0.471267439
      7.40310130             0.356618546
SP   3   1.00
     20.8479528             -0.108506975            0.0716287243
      4.80830834            -0.146451658            0.3459121030
      1.34406986             1.128688580            0.7224699570
SP   1   1.00
      0.358151393            1.0000000              1.0000000
D    1   1.00
      3.5000000              1.0000000
D    1   1.00
      0.8750000              1.0000000
F    1   1.00
      1.8500000              1.0000000
****
Al     0
S    6   1.00
  13983.1000000              0.00194267
   2098.7500000              0.0148599
    477.7050000              0.0728494
    134.3600000              0.2468300
     42.8709000              0.4872580
     14.5189000              0.3234960
SP   6   1.00
    239.6680000             -0.00292619             0.00460285
     57.4419000             -0.0374080              0.0331990
     18.2859000             -0.1144870              0.1362820
      6.5991400              0.1156350              0.3304760
      2.4904900              0.6125950              0.4491460
      0.9445400              0.3937990              0.2657040
SP   3   1.00
      1.2779000             -0.2276060             -0.0175130
      0.3975900              0.00144583             0.2445330
      0.1600950              1.0927900              0.8049340
SP   1   1.00
      0.0556577              1.0000000              1.0000000
D    1   1.00
      0.6500000              1.0000000
D    1   1.00
      0.1625000              1.0000000
F    1   1.00
      0.2500000              1.0000000
****
Si     0
S    6   1.00
  16115.9000000              0.00195948
   2425.5800000              0.01492880
    553.8670000              0.07284780
    156.3400000              0.24613000
     50.0683000              0.48591400
     17.0178000              0.32500200
SP   6   1.00
    292.7180000             -0.00278094             0.00443826
     69.8731000             -0.03571460             0.03266790
     22.3363000             -0.11498500             0.13472100
      8.1503900              0.09356340             0.32867800
      3.1345800              0.60301700             0.44964000
      1.2254300              0.41895900             0.26137200
SP   3   1.00
      1.7273800             -0.24463000            -0.01779510
      0.5729220              0.00431572             0.25353900
      0.2221920              1.09818000             0.80066900
SP   1   1.00
      0.0778369              1.00000000             1.00000000
D    1   1.00
      0.9000000              1.0000000
D    1   1.00
      0.2250000              1.0000000
F    1   1.00
      0.3200000              1.0000000
****
P     0
S    6   1.00
  19413.3000000              0.0018516
   2909.4200000              0.0142062
    661.3640000              0.0699995
    185.7590000              0.2400790
     59.1943000              0.4847620
     20.0310000              0.3352000
SP   6   1.00
    339.4780000             -0.00278217             0.00456462
     81.0101000             -0.0360499              0.03369360
     25.8780000             -0.1166310              0.13975500
      9.4522100              0.0968328              0.33936200
      3.6656600              0.6144180              0.45092100
      1.4674600              0.4037980              0.23858600
SP   3   1.00
      2.1562300             -0.2529230             -0.01776530
      0.7489970              0.0328517              0.27405800
      0.2831450              1.0812500              0.78542100
SP   1   1.00
      0.0998317              1.0000000              1.00000000
D    1   1.00
      1.1000000              1.0000000
D    1   1.00
      0.2750000              1.0000000
F    1   1.00
      0.4500000              1.0000000
****
S     0
S    6   1.00
  21917.1000000              0.0018690
   3301.4900000              0.0142300
    754.1460000              0.0696960
    212.7110000              0.2384870
     67.9896000              0.4833070
     23.0515000              0.3380740
SP   6   1.00
    423.7350000             -0.0023767              0.0040610
    100.7100000             -0.0316930              0.0306810
     32.1599000             -0.1133170              0.1304520
     11.8079000              0.0560900              0.3272050
      4.6311000              0.5922550              0.4528510
      1.8702500              0.4550060              0.2560420
SP   3   1.00
      2.6158400             -0.2503740             -0.0145110
      0.9221670              0.0669570              0.3102630
      0.3412870              1.0545100              0.7544830
SP   1   1.00
      0.1171670              1.0000000              1.0000000
D    1   1.00
      1.3000000              1.0000000
D    1   1.00
      0.3250000              1.0000000
F    1   1.00
      0.5500000              1.0000000
****
Cl     0
S    6   1.00
  25180.1000000              0.0018330
   3780.3500000              0.0140340
    860.4740000              0.0690970
    242.1450000              0.2374520
     77.3349000              0.4830340
     26.2470000              0.3398560
SP   6   1.00
    491.7650000             -0.0022974              0.0039894
    116.9840000             -0.0307140              0.0303180
     37.4153000             -0.1125280              0.1298800
     13.7834000              0.0450160              0.3279510
      5.4521500              0.5893530              0.4535270
      2.2258800              0.4652060              0.2521540
SP   3   1.00
      3.1864900             -0.2518300             -0.0142990
      1.1442700              0.0615890              0.3235720
      0.4203770              1.0601800              0.7435070
SP   1   1.00
      0.1426570              1.0000000              1.0000000
D    1   1.00
      1.5000000              1.0000000
D    1   1.00
      0.3750000              1.0000000
F    1   1.00
      0.7000000              1.0000000
****
}

set {
reference uhf
freeze_core true
e_convergence 10
d_convergence 10
dft_spherical_points 1202
dft_radial_points 99
}

e = energy('b3lyp')

print_out('Grab this energy {0}'.format(e))
--------------------------------------------------------------------------

    Molecular point group: cs

    Geometry (in Bohr), charge = 0, multiplicity = 2:

       Center              X                  Y                   Z               Mass
    ------------   -----------------  -----------------  -----------------  -----------------
         C           -0.005496715278    -1.356156598656     0.000000000000    12.000000000000
         C           -0.019327346478     1.468510481544     0.000000000000    12.000000000000
         H            1.927917969622    -2.114206184856     0.000000000000     1.007825032230
         H           -0.944244328478    -2.118660794456     1.672090039700     1.007825032230
         H           -0.944244328478    -2.118660794456    -1.672090039700     1.007825032230
         H            0.128073268922     2.506874669244    -1.749110572800     1.007825032230
         H            0.128073268922     2.506874669244     1.749110572800     1.007825032230

  Charge       = 0
  Multiplicity = 2
  Basis Set: ANONYMOUSC82D6870
    Blend: 6-31G_2DFP_
  Basis Set: (ANONYMOUSC82D6870 AUX)
    Blend: DEF2-UNIVERSAL-JKFIT

    Orbital Energies [Eh]
    ---------------------

    Alpha Occupied:

       1Ap   -10.179375     2Ap   -10.174243     3Ap    -0.751105
       4Ap    -0.605370     1App   -0.446497     5Ap    -0.410206
       6Ap    -0.384675     2App   -0.354755     7Ap    -0.197540

    Alpha Virtual:

       8Ap     0.099078     9Ap     0.128220     3App    0.141415
      10Ap     0.165829     4App    0.203356    11Ap     0.246418
      12Ap     0.430085     5App    0.440428    13Ap     0.446902
       6App    0.450204    14Ap     0.478401    15Ap     0.520760
      16Ap     0.544085     7App    0.574131    17Ap     0.593403
       8App    0.619074    18Ap     0.634056    19Ap     0.639823
       9App    0.650805    20Ap     0.741383    10App    0.822516
      11App    0.866029    21Ap     0.930908    22Ap     0.976829
      12App    1.025587    13App    1.071072    23Ap     1.082905
      24Ap     1.086705    25Ap     1.180166    14App    1.221727
      26Ap     1.253511    15App    1.323289    27Ap     1.343494
      28Ap     1.367270    29Ap     1.419784    16App    1.445544
      17App    1.510860    30Ap     1.522168    31Ap     1.604650
      32Ap     1.765826    33Ap     1.806741    18App    1.952110
      19App    2.049716    34Ap     2.105212    35Ap     2.697817
      36Ap     2.799737    20App    2.828963    21App    2.860330
      22App    2.929077    37Ap     2.963749    38Ap     2.987094
      23App    3.080425    39Ap     3.092613    24App    3.160440
      40Ap     3.169816    25App    3.199030    26App    3.300218
      41Ap     3.358233    42Ap     3.389872    43Ap     3.494514
      27App    3.499177    28App    3.579801    44Ap     3.593673
      45Ap     3.711721    29App    3.806486    46Ap     3.972143
      47Ap     4.022276    48Ap     4.087146    49Ap     4.130779
      30App    4.190778    31App    4.198978    50Ap     4.205312
      51Ap     4.296446    32App    4.368158    33App    4.489225
      52Ap     4.498819    53Ap     4.525062    34App    4.868028
      54Ap     4.923454    35App    5.148114    55Ap     5.173630
      56Ap     5.279114    36App    5.329418

    Beta Occupied:

       1Ap   -10.175061     2Ap   -10.165432     3Ap    -0.734430
       4Ap    -0.580780     1App   -0.440305     5Ap    -0.395643
       6Ap    -0.376735     2App   -0.350343

    Beta Virtual:

       7Ap    -0.036166     8Ap     0.101701     9Ap     0.139393
       3App    0.143004    10Ap     0.170643     4App    0.206943
      11Ap     0.252188     5App    0.441474    12Ap     0.445196
       6App    0.455935    13Ap     0.459587    14Ap     0.487086
      15Ap     0.548860     7App    0.587638    16Ap     0.592620
      17Ap     0.602240     8App    0.624372    18Ap     0.642002
      19Ap     0.645620     9App    0.658240    20Ap     0.766713
      10App    0.822306    11App    0.869040    21Ap     0.948638
      22Ap     0.987946    12App    1.034126    13App    1.079098
      23Ap     1.090390    24Ap     1.101186    25Ap     1.183800
      14App    1.229468    26Ap     1.265806    15App    1.329874
      27Ap     1.350945    28Ap     1.373568    29Ap     1.425703
      16App    1.453032    17App    1.515471    30Ap     1.533222
      31Ap     1.616093    32Ap     1.772289    33Ap     1.813004
      18App    1.956522    19App    2.059650    34Ap     2.110687
      35Ap     2.721046    36Ap     2.821545    20App    2.830878
      21App    2.876456    22App    2.931578    37Ap     2.990302
      38Ap     3.024074    23App    3.093681    39Ap     3.119892
      24App    3.178205    40Ap     3.209999    25App    3.217791
      26App    3.339283    41Ap     3.370867    42Ap     3.408606
      27App    3.519289    43Ap     3.537286    28App    3.596241
      44Ap     3.603880    45Ap     3.729849    29App    3.806792
      46Ap     3.983008    47Ap     4.031446    48Ap     4.093516
      49Ap     4.140260    30App    4.203371    31App    4.205626
      50Ap     4.214508    51Ap     4.304447    32App    4.372365
      33App    4.496161    52Ap     4.509213    53Ap     4.532471
      34App    4.869379    54Ap     4.927731    35App    5.151409
      55Ap     5.184522    56Ap     5.286199    36App    5.331949

    Final Occupation by Irrep:
             Ap   App
    DOCC [     6,    2 ]
    SOCC [     1,    0 ]

  @DF-UKS Final Energy:   -79.16613559889349

   => Energetics <=

    Nuclear Repulsion Energy =             36.9150847456368254
    One-Electron Energy =                -178.0430578046809273
    Two-Electron Energy =                  72.2433684502432243
    DFT Exchange-Correlation Energy =     -10.2815309900926088
    Empirical Dispersion Energy =           0.0000000000000000
    VV10 Nonlocal Energy =                  0.0000000000000000
    Total Energy =                        -79.1661355988934901

  UHF NO Occupations:
  HONO-2 :    2App 1.9997340
  HONO-1 :    6 Ap 1.9987101
  HONO-0 :    7 Ap 1.0000000
  LUNO+0 :    8 Ap 0.0012899
  LUNO+1 :    3App 0.0002660
  LUNO+2 :    9 Ap 0.0002485
  LUNO+3 :   10 Ap 0.0002227

Computation Completed

Properties will be evaluated at   0.000000,   0.000000,   0.000000 [a0]

Properties computed using the SCF density matrix

  Nuclear Dipole Moment: [e a0]
     X:     0.1466      Y:    -0.6637      Z:     0.0000

  Electronic Dipole Moment: [e a0]
     X:    -0.1039      Y:     0.5796      Z:     0.0000

  Dipole Moment: [e a0]
     X:     0.0427      Y:    -0.0841      Z:     0.0000     Total:     0.0943

  Dipole Moment: [D]
     X:     0.1086      Y:    -0.2137      Z:     0.0000     Total:     0.2397

*** tstop() called on n045 at Fri Nov  5 18:41:54 2021
Module time:
	user time   =      65.11 seconds =       1.09 minutes
	system time =       0.47 seconds =       0.01 minutes
	total time  =         66 seconds =       1.10 minutes
Total time:
	user time   =      65.11 seconds =       1.09 minutes
	system time =       0.47 seconds =       0.01 minutes
	total time  =         66 seconds =       1.10 minutes
Grab this energy -79.16613559889349
    Psi4 stopped on: Friday, 05 November 2021 06:41PM
    Psi4 wall time for execution: 0:01:05.62

*** Psi4 exiting successfully. Buy a developer a beer!
