                               Psi4 1.4a2.dev629

  ==> Input File <==

--------------------------------------------------------------------------
import os
memory 14 GB

molecule {
 C   -0.0055012561   -1.3542693842    0.0017033301
 C   -0.0191107613    1.4644004018    0.0001308155
 H    1.9276095497   -2.1107554535    0.0046274269
 H   -0.9401900468   -2.1155904055    1.6687831165
 H   -0.9482891239   -2.1163101229   -1.6748239812
 H    0.1279762890    2.5108070635   -1.7424097518
 H    0.1285579258    2.5100276330    1.7419890439
units bohr
0 2
}

basis {

assign 6-31g_2dfp_

[ 6-31g_2dfp_ ]

spherical

!----------------------------------------------------------------------
! Basis Set Exchange
! Version v0.8.13
! https://www.basissetexchange.org
!----------------------------------------------------------------------
!   Basis set: 6-31G(2df,p)
! Description: 6-31G(2df,p)
!        Role: orbital
!     Version: 0  (Data from the original Basis Set Exchange)
!----------------------------------------------------------------------

****
H     0
S    3   1.00
     18.7311370              0.03349460
      2.8253937              0.23472695
      0.6401217              0.81375733
S    1   1.00
      0.1612778              1.00000000
P    1   1.00
      1.5000000              1.0000000
P    1   1.00
      0.3750000              1.0000000
****
B     0
S    6   1.00
   2068.8823000              0.0018663
    310.6495700              0.0142515
     70.6830330              0.0695516
     19.8610800              0.2325729
      6.2993048              0.4670787
      2.1270270              0.3634314
SP   3   1.00
      4.7279710             -0.1303938              0.0745976
      1.1903377             -0.1307889              0.3078467
      0.3594117              1.1309444              0.7434568
SP   1   1.00
      0.1267512              1.0000000              1.0000000
D    1   1.00
      0.8020000              1.0000000
D    1   1.00
      0.2005000              1.0000000
F    1   1.00
      0.5000000              1.0000000
****
C     0
S    6   1.00
   3047.5249000              0.0018347
    457.3695100              0.0140373
    103.9486900              0.0688426
     29.2101550              0.2321844
      9.2866630              0.4679413
      3.1639270              0.3623120
SP   3   1.00
      7.8682724             -0.1193324              0.0689991
      1.8812885             -0.1608542              0.3164240
      0.5442493              1.1434564              0.7443083
SP   1   1.00
      0.1687144              1.0000000              1.0000000
D    1   1.00
      1.2520000              1.0000000
D    1   1.00
      0.3130000              1.0000000
F    1   1.00
      0.8000000              1.0000000
****
N     0
S    6   1.00
   4173.5110000              0.0018348
    627.4579000              0.0139950
    142.9021000              0.0685870
     40.2343300              0.2322410
     12.8202100              0.4690700
      4.3904370              0.3604550
SP   3   1.00
     11.6263580             -0.1149610              0.0675800
      2.7162800             -0.1691180              0.3239070
      0.7722180              1.1458520              0.7408950
SP   1   1.00
      0.2120313              1.0000000              1.0000000
D    1   1.00
      1.8260000              1.0000000
D    1   1.00
      0.4565000              1.0000000
F    1   1.00
      1.0000000              1.0000000
****
O     0
S    6   1.00
   5484.6717000              0.0018311
    825.2349500              0.0139501
    188.0469600              0.0684451
     52.9645000              0.2327143
     16.8975700              0.4701930
      5.7996353              0.3585209
SP   3   1.00
     15.5396160             -0.1107775              0.0708743
      3.5999336             -0.1480263              0.3397528
      1.0137618              1.1307670              0.7271586
SP   1   1.00
      0.2700058              1.0000000              1.0000000
D    1   1.00
      2.5840000              1.0000000
D    1   1.00
      0.6460000              1.0000000
F    1   1.00
      1.4000000              1.0000000
****
F     0
S    6   1.00
   7001.7130900              0.0018196169
   1051.3660900              0.0139160796
    239.2856900              0.0684053245
     67.3974453              0.233185760
     21.5199573              0.471267439
      7.40310130             0.356618546
SP   3   1.00
     20.8479528             -0.108506975            0.0716287243
      4.80830834            -0.146451658            0.3459121030
      1.34406986             1.128688580            0.7224699570
SP   1   1.00
      0.358151393            1.0000000              1.0000000
D    1   1.00
      3.5000000              1.0000000
D    1   1.00
      0.8750000              1.0000000
F    1   1.00
      1.8500000              1.0000000
****
Al     0
S    6   1.00
  13983.1000000              0.00194267
   2098.7500000              0.0148599
    477.7050000              0.0728494
    134.3600000              0.2468300
     42.8709000              0.4872580
     14.5189000              0.3234960
SP   6   1.00
    239.6680000             -0.00292619             0.00460285
     57.4419000             -0.0374080              0.0331990
     18.2859000             -0.1144870              0.1362820
      6.5991400              0.1156350              0.3304760
      2.4904900              0.6125950              0.4491460
      0.9445400              0.3937990              0.2657040
SP   3   1.00
      1.2779000             -0.2276060             -0.0175130
      0.3975900              0.00144583             0.2445330
      0.1600950              1.0927900              0.8049340
SP   1   1.00
      0.0556577              1.0000000              1.0000000
D    1   1.00
      0.6500000              1.0000000
D    1   1.00
      0.1625000              1.0000000
F    1   1.00
      0.2500000              1.0000000
****
Si     0
S    6   1.00
  16115.9000000              0.00195948
   2425.5800000              0.01492880
    553.8670000              0.07284780
    156.3400000              0.24613000
     50.0683000              0.48591400
     17.0178000              0.32500200
SP   6   1.00
    292.7180000             -0.00278094             0.00443826
     69.8731000             -0.03571460             0.03266790
     22.3363000             -0.11498500             0.13472100
      8.1503900              0.09356340             0.32867800
      3.1345800              0.60301700             0.44964000
      1.2254300              0.41895900             0.26137200
SP   3   1.00
      1.7273800             -0.24463000            -0.01779510
      0.5729220              0.00431572             0.25353900
      0.2221920              1.09818000             0.80066900
SP   1   1.00
      0.0778369              1.00000000             1.00000000
D    1   1.00
      0.9000000              1.0000000
D    1   1.00
      0.2250000              1.0000000
F    1   1.00
      0.3200000              1.0000000
****
P     0
S    6   1.00
  19413.3000000              0.0018516
   2909.4200000              0.0142062
    661.3640000              0.0699995
    185.7590000              0.2400790
     59.1943000              0.4847620
     20.0310000              0.3352000
SP   6   1.00
    339.4780000             -0.00278217             0.00456462
     81.0101000             -0.0360499              0.03369360
     25.8780000             -0.1166310              0.13975500
      9.4522100              0.0968328              0.33936200
      3.6656600              0.6144180              0.45092100
      1.4674600              0.4037980              0.23858600
SP   3   1.00
      2.1562300             -0.2529230             -0.01776530
      0.7489970              0.0328517              0.27405800
      0.2831450              1.0812500              0.78542100
SP   1   1.00
      0.0998317              1.0000000              1.00000000
D    1   1.00
      1.1000000              1.0000000
D    1   1.00
      0.2750000              1.0000000
F    1   1.00
      0.4500000              1.0000000
****
S     0
S    6   1.00
  21917.1000000              0.0018690
   3301.4900000              0.0142300
    754.1460000              0.0696960
    212.7110000              0.2384870
     67.9896000              0.4833070
     23.0515000              0.3380740
SP   6   1.00
    423.7350000             -0.0023767              0.0040610
    100.7100000             -0.0316930              0.0306810
     32.1599000             -0.1133170              0.1304520
     11.8079000              0.0560900              0.3272050
      4.6311000              0.5922550              0.4528510
      1.8702500              0.4550060              0.2560420
SP   3   1.00
      2.6158400             -0.2503740             -0.0145110
      0.9221670              0.0669570              0.3102630
      0.3412870              1.0545100              0.7544830
SP   1   1.00
      0.1171670              1.0000000              1.0000000
D    1   1.00
      1.3000000              1.0000000
D    1   1.00
      0.3250000              1.0000000
F    1   1.00
      0.5500000              1.0000000
****
Cl     0
S    6   1.00
  25180.1000000              0.0018330
   3780.3500000              0.0140340
    860.4740000              0.0690970
    242.1450000              0.2374520
     77.3349000              0.4830340
     26.2470000              0.3398560
SP   6   1.00
    491.7650000             -0.0022974              0.0039894
    116.9840000             -0.0307140              0.0303180
     37.4153000             -0.1125280              0.1298800
     13.7834000              0.0450160              0.3279510
      5.4521500              0.5893530              0.4535270
      2.2258800              0.4652060              0.2521540
SP   3   1.00
      3.1864900             -0.2518300             -0.0142990
      1.1442700              0.0615890              0.3235720
      0.4203770              1.0601800              0.7435070
SP   1   1.00
      0.1426570              1.0000000              1.0000000
D    1   1.00
      1.5000000              1.0000000
D    1   1.00
      0.3750000              1.0000000
F    1   1.00
      0.7000000              1.0000000
****
}

set {
reference uhf
freeze_core true
e_convergence 10
d_convergence 10
dft_spherical_points 1202
dft_radial_points 99
}

e = energy('b3lyp')

print_out('Grab this energy {0}'.format(e))
--------------------------------------------------------------------------

    Molecular point group: c1

    Geometry (in Bohr), charge = 0, multiplicity = 2:

       Center              X                  Y                   Z               Mass
    ------------   -----------------  -----------------  -----------------  -----------------
         C           -0.005591960278    -1.353904622235     0.001009051290    12.000000000000
         C           -0.019201465478     1.464765163765    -0.000563463310    12.000000000000
         H            1.927518845522    -2.110390691535     0.003933148090     1.007825032230
         H           -0.940280750978    -2.115225643535     1.668088837690     1.007825032230
         H           -0.948379828078    -2.115945360935    -1.675518260010     1.007825032230
         H            0.127885584822     2.511171825465    -1.743104030610     1.007825032230
         H            0.128467221622     2.510392394965     1.741294765090     1.007825032230

  Charge       = 0
  Multiplicity = 2
  Basis Set: ANONYMOUS1262A6AD
    Blend: 6-31G_2DFP_
  Basis Set: (ANONYMOUS1262A6AD AUX)
    Blend: DEF2-UNIVERSAL-JKFIT

    Orbital Energies [Eh]
    ---------------------

    Alpha Occupied:

       1A    -10.178806     2A    -10.174092     3A     -0.751798
       4A     -0.605559     5A     -0.446447     6A     -0.410668
       7A     -0.385690     8A     -0.354361     9A     -0.197287

    Alpha Virtual:

      10A      0.099332    11A      0.128515    12A      0.141334
      13A      0.165816    14A      0.203696    15A      0.247675
      16A      0.430475    17A      0.440712    18A      0.446322
      19A      0.449968    20A      0.478814    21A      0.520978
      22A      0.544033    23A      0.574843    24A      0.594936
      25A      0.619154    26A      0.634302    27A      0.640075
      28A      0.651176    29A      0.741326    30A      0.823692
      31A      0.865991    32A      0.931408    33A      0.978778
      34A      1.025129    35A      1.072528    36A      1.083681
      37A      1.086990    38A      1.179915    39A      1.220610
      40A      1.254323    41A      1.324134    42A      1.345333
      43A      1.367879    44A      1.420878    45A      1.446290
      46A      1.511786    47A      1.525007    48A      1.606880
      49A      1.766365    50A      1.807700    51A      1.952703
      52A      2.055392    53A      2.104017    54A      2.698531
      55A      2.801571    56A      2.830015    57A      2.860967
      58A      2.929005    59A      2.963966    60A      2.986905
      61A      3.079462    62A      3.092822    63A      3.158202
      64A      3.170998    65A      3.199564    66A      3.299047
      67A      3.359432    68A      3.389551    69A      3.493988
      70A      3.499529    71A      3.581780    72A      3.595207
      73A      3.713616    74A      3.807065    75A      3.974633
      76A      4.025533    77A      4.092191    78A      4.131195
      79A      4.194132    80A      4.199624    81A      4.206627
      82A      4.296450    83A      4.369745    84A      4.492657
      85A      4.502734    86A      4.529336    87A      4.871764
      88A      4.925287    89A      5.158232    90A      5.172071
      91A      5.279743    92A      5.331862

    Beta Occupied:

       1A    -10.174911     2A    -10.164875     3A     -0.735100
       4A     -0.581011     5A     -0.440273     6A     -0.395996
       7A     -0.377750     8A     -0.349895

    Beta Virtual:

       9A     -0.036059    10A      0.101893    11A      0.139678
      12A      0.142929    13A      0.170648    14A      0.207285
      15A      0.253406    16A      0.441781    17A      0.445109
      18A      0.455647    19A      0.459336    20A      0.487847
      21A      0.549303    22A      0.588292    23A      0.592435
      24A      0.603637    25A      0.624559    26A      0.642172
      27A      0.645970    28A      0.658615    29A      0.766592
      30A      0.823526    31A      0.869028    32A      0.949104
      33A      0.989971    34A      1.033734    35A      1.080435
      36A      1.088262    37A      1.104437    38A      1.183578
      39A      1.228349    40A      1.266663    41A      1.330637
      42A      1.352846    43A      1.374196    44A      1.426830
      45A      1.453778    46A      1.516412    47A      1.536429
      48A      1.617864    49A      1.772918    50A      1.813960
      51A      1.957137    52A      2.065442    53A      2.109535
      54A      2.721756    55A      2.823325    56A      2.831965
      57A      2.877006    58A      2.931517    59A      2.990555
      60A      3.023800    61A      3.092927    62A      3.120270
      63A      3.175834    64A      3.210997    65A      3.217758
      66A      3.338478    67A      3.371951    68A      3.408513
      69A      3.519088    70A      3.536737    71A      3.598579
      72A      3.605472    73A      3.731621    74A      3.807399
      75A      3.984996    76A      4.035622    77A      4.098069
      78A      4.140665    79A      4.203319    80A      4.209720
      81A      4.215952    82A      4.304500    83A      4.374026
      84A      4.499768    85A      4.513355    86A      4.536555
      87A      4.873147    88A      4.929591    89A      5.161592
      90A      5.183015    91A      5.286841    92A      5.334443

    Final Occupation by Irrep:
              A
    DOCC [     8 ]
    SOCC [     1 ]

  @DF-UKS Final Energy:   -79.16612658667954

   => Energetics <=

    Nuclear Repulsion Energy =             36.9601309179544515
    One-Electron Energy =                -178.1297603325142518
    Two-Electron Energy =                  72.2869842768043043
    DFT Exchange-Correlation Energy =     -10.2834814489240305
    Empirical Dispersion Energy =           0.0000000000000000
    VV10 Nonlocal Energy =                  0.0000000000000000
    Total Energy =                        -79.1661265866795389

  UHF NO Occupations:
  HONO-2 :    7  A 1.9997342
  HONO-1 :    8  A 1.9987166
  HONO-0 :    9  A 1.0000000
  LUNO+0 :   10  A 0.0012834
  LUNO+1 :   11  A 0.0002658
  LUNO+2 :   12  A 0.0002498
  LUNO+3 :   13  A 0.0002208

Computation Completed

Properties will be evaluated at   0.000000,   0.000000,   0.000000 [a0]

Properties computed using the SCF density matrix

  Nuclear Dipole Moment: [e a0]
     X:     0.1465      Y:    -0.6548      Z:    -0.0026

  Electronic Dipole Moment: [e a0]
     X:    -0.1038      Y:     0.5705      Z:     0.0042

  Dipole Moment: [e a0]
     X:     0.0427      Y:    -0.0844      Z:     0.0015     Total:     0.0946

  Dipole Moment: [D]
     X:     0.1085      Y:    -0.2144      Z:     0.0039     Total:     0.2403

*** tstop() called on n079 at Fri Nov  5 19:13:46 2021
Module time:
	user time   =      43.71 seconds =       0.73 minutes
	system time =       0.53 seconds =       0.01 minutes
	total time  =         44 seconds =       0.73 minutes
Total time:
	user time   =      43.71 seconds =       0.73 minutes
	system time =       0.53 seconds =       0.01 minutes
	total time  =         44 seconds =       0.73 minutes
Grab this energy -79.16612658667954
    Psi4 stopped on: Friday, 05 November 2021 07:13PM
    Psi4 wall time for execution: 0:00:44.29

*** Psi4 exiting successfully. Buy a developer a beer!
