                               Psi4 1.4a2.dev629

  ==> Input File <==

--------------------------------------------------------------------------
import os
memory 14 GB

molecule {
 C   -0.0054788813   -1.3544074370    0.0007553516
 C   -0.0193706796    1.4654958221   -0.0047169353
 H    1.9281492707   -2.1116857842    0.0033934766
 H   -0.9450039340   -2.1170465666    1.6757983027
 H   -0.9436526210   -2.1151605970   -1.6686757689
 H    0.1278263841    2.5229822076   -1.7527309457
 H    0.1285830375    2.4981320874    1.7461765191
units bohr
0 2
}

basis {

assign 6-31g_2dfp_

[ 6-31g_2dfp_ ]

spherical

!----------------------------------------------------------------------
! Basis Set Exchange
! Version v0.8.13
! https://www.basissetexchange.org
!----------------------------------------------------------------------
!   Basis set: 6-31G(2df,p)
! Description: 6-31G(2df,p)
!        Role: orbital
!     Version: 0  (Data from the original Basis Set Exchange)
!----------------------------------------------------------------------

****
H     0
S    3   1.00
     18.7311370              0.03349460
      2.8253937              0.23472695
      0.6401217              0.81375733
S    1   1.00
      0.1612778              1.00000000
P    1   1.00
      1.5000000              1.0000000
P    1   1.00
      0.3750000              1.0000000
****
B     0
S    6   1.00
   2068.8823000              0.0018663
    310.6495700              0.0142515
     70.6830330              0.0695516
     19.8610800              0.2325729
      6.2993048              0.4670787
      2.1270270              0.3634314
SP   3   1.00
      4.7279710             -0.1303938              0.0745976
      1.1903377             -0.1307889              0.3078467
      0.3594117              1.1309444              0.7434568
SP   1   1.00
      0.1267512              1.0000000              1.0000000
D    1   1.00
      0.8020000              1.0000000
D    1   1.00
      0.2005000              1.0000000
F    1   1.00
      0.5000000              1.0000000
****
C     0
S    6   1.00
   3047.5249000              0.0018347
    457.3695100              0.0140373
    103.9486900              0.0688426
     29.2101550              0.2321844
      9.2866630              0.4679413
      3.1639270              0.3623120
SP   3   1.00
      7.8682724             -0.1193324              0.0689991
      1.8812885             -0.1608542              0.3164240
      0.5442493              1.1434564              0.7443083
SP   1   1.00
      0.1687144              1.0000000              1.0000000
D    1   1.00
      1.2520000              1.0000000
D    1   1.00
      0.3130000              1.0000000
F    1   1.00
      0.8000000              1.0000000
****
N     0
S    6   1.00
   4173.5110000              0.0018348
    627.4579000              0.0139950
    142.9021000              0.0685870
     40.2343300              0.2322410
     12.8202100              0.4690700
      4.3904370              0.3604550
SP   3   1.00
     11.6263580             -0.1149610              0.0675800
      2.7162800             -0.1691180              0.3239070
      0.7722180              1.1458520              0.7408950
SP   1   1.00
      0.2120313              1.0000000              1.0000000
D    1   1.00
      1.8260000              1.0000000
D    1   1.00
      0.4565000              1.0000000
F    1   1.00
      1.0000000              1.0000000
****
O     0
S    6   1.00
   5484.6717000              0.0018311
    825.2349500              0.0139501
    188.0469600              0.0684451
     52.9645000              0.2327143
     16.8975700              0.4701930
      5.7996353              0.3585209
SP   3   1.00
     15.5396160             -0.1107775              0.0708743
      3.5999336             -0.1480263              0.3397528
      1.0137618              1.1307670              0.7271586
SP   1   1.00
      0.2700058              1.0000000              1.0000000
D    1   1.00
      2.5840000              1.0000000
D    1   1.00
      0.6460000              1.0000000
F    1   1.00
      1.4000000              1.0000000
****
F     0
S    6   1.00
   7001.7130900              0.0018196169
   1051.3660900              0.0139160796
    239.2856900              0.0684053245
     67.3974453              0.233185760
     21.5199573              0.471267439
      7.40310130             0.356618546
SP   3   1.00
     20.8479528             -0.108506975            0.0716287243
      4.80830834            -0.146451658            0.3459121030
      1.34406986             1.128688580            0.7224699570
SP   1   1.00
      0.358151393            1.0000000              1.0000000
D    1   1.00
      3.5000000              1.0000000
D    1   1.00
      0.8750000              1.0000000
F    1   1.00
      1.8500000              1.0000000
****
Al     0
S    6   1.00
  13983.1000000              0.00194267
   2098.7500000              0.0148599
    477.7050000              0.0728494
    134.3600000              0.2468300
     42.8709000              0.4872580
     14.5189000              0.3234960
SP   6   1.00
    239.6680000             -0.00292619             0.00460285
     57.4419000             -0.0374080              0.0331990
     18.2859000             -0.1144870              0.1362820
      6.5991400              0.1156350              0.3304760
      2.4904900              0.6125950              0.4491460
      0.9445400              0.3937990              0.2657040
SP   3   1.00
      1.2779000             -0.2276060             -0.0175130
      0.3975900              0.00144583             0.2445330
      0.1600950              1.0927900              0.8049340
SP   1   1.00
      0.0556577              1.0000000              1.0000000
D    1   1.00
      0.6500000              1.0000000
D    1   1.00
      0.1625000              1.0000000
F    1   1.00
      0.2500000              1.0000000
****
Si     0
S    6   1.00
  16115.9000000              0.00195948
   2425.5800000              0.01492880
    553.8670000              0.07284780
    156.3400000              0.24613000
     50.0683000              0.48591400
     17.0178000              0.32500200
SP   6   1.00
    292.7180000             -0.00278094             0.00443826
     69.8731000             -0.03571460             0.03266790
     22.3363000             -0.11498500             0.13472100
      8.1503900              0.09356340             0.32867800
      3.1345800              0.60301700             0.44964000
      1.2254300              0.41895900             0.26137200
SP   3   1.00
      1.7273800             -0.24463000            -0.01779510
      0.5729220              0.00431572             0.25353900
      0.2221920              1.09818000             0.80066900
SP   1   1.00
      0.0778369              1.00000000             1.00000000
D    1   1.00
      0.9000000              1.0000000
D    1   1.00
      0.2250000              1.0000000
F    1   1.00
      0.3200000              1.0000000
****
P     0
S    6   1.00
  19413.3000000              0.0018516
   2909.4200000              0.0142062
    661.3640000              0.0699995
    185.7590000              0.2400790
     59.1943000              0.4847620
     20.0310000              0.3352000
SP   6   1.00
    339.4780000             -0.00278217             0.00456462
     81.0101000             -0.0360499              0.03369360
     25.8780000             -0.1166310              0.13975500
      9.4522100              0.0968328              0.33936200
      3.6656600              0.6144180              0.45092100
      1.4674600              0.4037980              0.23858600
SP   3   1.00
      2.1562300             -0.2529230             -0.01776530
      0.7489970              0.0328517              0.27405800
      0.2831450              1.0812500              0.78542100
SP   1   1.00
      0.0998317              1.0000000              1.00000000
D    1   1.00
      1.1000000              1.0000000
D    1   1.00
      0.2750000              1.0000000
F    1   1.00
      0.4500000              1.0000000
****
S     0
S    6   1.00
  21917.1000000              0.0018690
   3301.4900000              0.0142300
    754.1460000              0.0696960
    212.7110000              0.2384870
     67.9896000              0.4833070
     23.0515000              0.3380740
SP   6   1.00
    423.7350000             -0.0023767              0.0040610
    100.7100000             -0.0316930              0.0306810
     32.1599000             -0.1133170              0.1304520
     11.8079000              0.0560900              0.3272050
      4.6311000              0.5922550              0.4528510
      1.8702500              0.4550060              0.2560420
SP   3   1.00
      2.6158400             -0.2503740             -0.0145110
      0.9221670              0.0669570              0.3102630
      0.3412870              1.0545100              0.7544830
SP   1   1.00
      0.1171670              1.0000000              1.0000000
D    1   1.00
      1.3000000              1.0000000
D    1   1.00
      0.3250000              1.0000000
F    1   1.00
      0.5500000              1.0000000
****
Cl     0
S    6   1.00
  25180.1000000              0.0018330
   3780.3500000              0.0140340
    860.4740000              0.0690970
    242.1450000              0.2374520
     77.3349000              0.4830340
     26.2470000              0.3398560
SP   6   1.00
    491.7650000             -0.0022974              0.0039894
    116.9840000             -0.0307140              0.0303180
     37.4153000             -0.1125280              0.1298800
     13.7834000              0.0450160              0.3279510
      5.4521500              0.5893530              0.4535270
      2.2258800              0.4652060              0.2521540
SP   3   1.00
      3.1864900             -0.2518300             -0.0142990
      1.1442700              0.0615890              0.3235720
      0.4203770              1.0601800              0.7435070
SP   1   1.00
      0.1426570              1.0000000              1.0000000
D    1   1.00
      1.5000000              1.0000000
D    1   1.00
      0.3750000              1.0000000
F    1   1.00
      0.7000000              1.0000000
****
}

set {
reference uhf
freeze_core true
e_convergence 10
d_convergence 10
dft_spherical_points 1202
dft_radial_points 99
}

e = energy('b3lyp')

print_out('Grab this energy {0}'.format(e))
--------------------------------------------------------------------------

    Molecular point group: c1

    Geometry (in Bohr), charge = 0, multiplicity = 2:

       Center              X                  Y                   Z               Mass
    ------------   -----------------  -----------------  -----------------  -----------------
         C           -0.005479668178    -1.354405067191     0.002254929182    12.000000000000
         C           -0.019371466478     1.465498191909    -0.003217357718    12.000000000000
         H            1.928148483822    -2.111683414391     0.004893054182     1.007825032230
         H           -0.945004720878    -2.117044196791     1.677297880282     1.007825032230
         H           -0.943653407878    -2.115158227191    -1.667176191318     1.007825032230
         H            0.127825597222     2.522984577409    -1.751231368118     1.007825032230
         H            0.128582250622     2.498134457209     1.747676096682     1.007825032230

  Charge       = 0
  Multiplicity = 2
  Basis Set: ANONYMOUSA5823FF0
    Blend: 6-31G_2DFP_
  Basis Set: (ANONYMOUSA5823FF0 AUX)
    Blend: DEF2-UNIVERSAL-JKFIT

    Orbital Energies [Eh]
    ---------------------

    Alpha Occupied:

       1A    -10.179494     2A    -10.174203     3A     -0.751523
       4A     -0.604985     5A     -0.446251     6A     -0.410540
       7A     -0.385234     8A     -0.354252     9A     -0.197350

    Alpha Virtual:

      10A      0.099043    11A      0.127931    12A      0.141036
      13A      0.165746    14A      0.203277    15A      0.247201
      16A      0.430314    17A      0.440653    18A      0.446288
      19A      0.449981    20A      0.478620    21A      0.520929
      22A      0.543813    23A      0.574273    24A      0.594073
      25A      0.618736    26A      0.633981    27A      0.639792
      28A      0.650165    29A      0.741265    30A      0.822597
      31A      0.865879    32A      0.931150    33A      0.977068
      34A      1.024940    35A      1.070820    36A      1.084046
      37A      1.085926    38A      1.179947    39A      1.220479
      40A      1.253777    41A      1.323451    42A      1.344844
      43A      1.367476    44A      1.420186    45A      1.445797
      46A      1.509863    47A      1.524165    48A      1.603401
      49A      1.764505    50A      1.806676    51A      1.952086
      52A      2.049930    53A      2.103093    54A      2.698319
      55A      2.801091    56A      2.828985    57A      2.860500
      58A      2.928773    59A      2.963034    60A      2.986541
      61A      3.079928    62A      3.093559    63A      3.158788
      64A      3.170765    65A      3.199101    66A      3.300381
      67A      3.358184    68A      3.390129    69A      3.493915
      70A      3.499549    71A      3.581019    72A      3.594501
      73A      3.712181    74A      3.806797    75A      3.973753
      76A      4.023748    77A      4.088065    78A      4.129364
      79A      4.189278    80A      4.198122    81A      4.205225
      82A      4.294799    83A      4.368927    84A      4.489135
      85A      4.501277    86A      4.527816    87A      4.864795
      88A      4.924614    89A      5.145645    90A      5.169607
      91A      5.279016    92A      5.329306

    Beta Occupied:

       1A    -10.175023     2A    -10.165552     3A     -0.734872
       4A     -0.580365     5A     -0.440104     6A     -0.395883
       7A     -0.377303     8A     -0.349797

    Beta Virtual:

       9A     -0.036075    10A      0.101693    11A      0.139030
      12A      0.142730    13A      0.170579    14A      0.206877
      15A      0.252948    16A      0.441680    17A      0.445026
      18A      0.455669    19A      0.459284    20A      0.487447
      21A      0.549096    22A      0.587647    23A      0.592465
      24A      0.602816    25A      0.624026    26A      0.641894
      27A      0.645522    28A      0.657617    29A      0.766627
      30A      0.822387    31A      0.868912    32A      0.948819
      33A      0.988248    34A      1.033557    35A      1.078742
      36A      1.089613    37A      1.102438    38A      1.183578
      39A      1.228223    40A      1.266125    41A      1.330011
      42A      1.352336    43A      1.373802    44A      1.426145
      45A      1.453273    46A      1.514449    47A      1.535416
      48A      1.614559    49A      1.771038    50A      1.812892
      51A      1.956518    52A      2.059868    53A      2.108615
      54A      2.721552    55A      2.822713    56A      2.831097
      57A      2.876543    58A      2.931307    59A      2.989841
      60A      3.023318    61A      3.093471    62A      3.120681
      63A      3.176546    64A      3.210865    65A      3.218078
      66A      3.339048    67A      3.370795    68A      3.408745
      69A      3.519424    70A      3.536919    71A      3.597651
      72A      3.604757    73A      3.730325    74A      3.807148
      75A      3.984352    76A      4.032995    77A      4.094488
      78A      4.138856    79A      4.202667    80A      4.203896
      81A      4.214510    82A      4.302798    83A      4.373178
      84A      4.496197    85A      4.511787    86A      4.535093
      87A      4.866160    88A      4.928901    89A      5.149184
      90A      5.180264    91A      5.286130    92A      5.331857

    Final Occupation by Irrep:
              A
    DOCC [     8 ]
    SOCC [     1 ]

  @DF-UKS Final Energy:   -79.16614618368884

   => Energetics <=

    Nuclear Repulsion Energy =             36.9298902812813949
    One-Electron Energy =                -178.0726671091474884
    Two-Electron Energy =                  72.2578748956853474
    DFT Exchange-Correlation Energy =     -10.2812442515080900
    Empirical Dispersion Energy =           0.0000000000000000
    VV10 Nonlocal Energy =                  0.0000000000000000
    Total Energy =                        -79.1661461836888378

  UHF NO Occupations:
  HONO-2 :    7  A 1.9997317
  HONO-1 :    8  A 1.9987091
  HONO-0 :    9  A 1.0000000
  LUNO+0 :   10  A 0.0012909
  LUNO+1 :   11  A 0.0002683
  LUNO+2 :   12  A 0.0002503
  LUNO+3 :   13  A 0.0002221

Computation Completed

Properties will be evaluated at   0.000000,   0.000000,   0.000000 [a0]

Properties computed using the SCF density matrix

  Nuclear Dipole Moment: [e a0]
     X:     0.1468      Y:    -0.6562      Z:     0.0057

  Electronic Dipole Moment: [e a0]
     X:    -0.1042      Y:     0.5712      Z:    -0.0053

  Dipole Moment: [e a0]
     X:     0.0426      Y:    -0.0850      Z:     0.0004     Total:     0.0951

  Dipole Moment: [D]
     X:     0.1082      Y:    -0.2160      Z:     0.0009     Total:     0.2416

*** tstop() called on n054 at Fri Nov  5 19:23:53 2021
Module time:
	user time   =      50.10 seconds =       0.84 minutes
	system time =       0.55 seconds =       0.01 minutes
	total time  =         50 seconds =       0.83 minutes
Total time:
	user time   =      50.10 seconds =       0.84 minutes
	system time =       0.55 seconds =       0.01 minutes
	total time  =         50 seconds =       0.83 minutes
Grab this energy -79.16614618368884
    Psi4 stopped on: Friday, 05 November 2021 07:23PM
    Psi4 wall time for execution: 0:00:50.69

*** Psi4 exiting successfully. Buy a developer a beer!
