                               Psi4 1.4a2.dev629

  ==> Input File <==

--------------------------------------------------------------------------
import os
memory 14 GB

molecule {
 C   -0.0044914494   -1.3543312598    0.0017061607
 C   -0.0203295434    1.4653498785    0.0001292961
 H    1.9290449837   -2.1200827466    0.0046328274
 H   -0.9383983328   -2.1114426336    1.6696499592
 H   -0.9464965737   -2.1121348134   -1.6756904255
 H    0.1255679160    2.5108625419   -1.7492002212
 H    0.1261555760    2.5100887653    1.7487724032
units bohr
0 2
}

basis {

assign 6-31g_2dfp_

[ 6-31g_2dfp_ ]

spherical

!----------------------------------------------------------------------
! Basis Set Exchange
! Version v0.8.13
! https://www.basissetexchange.org
!----------------------------------------------------------------------
!   Basis set: 6-31G(2df,p)
! Description: 6-31G(2df,p)
!        Role: orbital
!     Version: 0  (Data from the original Basis Set Exchange)
!----------------------------------------------------------------------

****
H     0
S    3   1.00
     18.7311370              0.03349460
      2.8253937              0.23472695
      0.6401217              0.81375733
S    1   1.00
      0.1612778              1.00000000
P    1   1.00
      1.5000000              1.0000000
P    1   1.00
      0.3750000              1.0000000
****
B     0
S    6   1.00
   2068.8823000              0.0018663
    310.6495700              0.0142515
     70.6830330              0.0695516
     19.8610800              0.2325729
      6.2993048              0.4670787
      2.1270270              0.3634314
SP   3   1.00
      4.7279710             -0.1303938              0.0745976
      1.1903377             -0.1307889              0.3078467
      0.3594117              1.1309444              0.7434568
SP   1   1.00
      0.1267512              1.0000000              1.0000000
D    1   1.00
      0.8020000              1.0000000
D    1   1.00
      0.2005000              1.0000000
F    1   1.00
      0.5000000              1.0000000
****
C     0
S    6   1.00
   3047.5249000              0.0018347
    457.3695100              0.0140373
    103.9486900              0.0688426
     29.2101550              0.2321844
      9.2866630              0.4679413
      3.1639270              0.3623120
SP   3   1.00
      7.8682724             -0.1193324              0.0689991
      1.8812885             -0.1608542              0.3164240
      0.5442493              1.1434564              0.7443083
SP   1   1.00
      0.1687144              1.0000000              1.0000000
D    1   1.00
      1.2520000              1.0000000
D    1   1.00
      0.3130000              1.0000000
F    1   1.00
      0.8000000              1.0000000
****
N     0
S    6   1.00
   4173.5110000              0.0018348
    627.4579000              0.0139950
    142.9021000              0.0685870
     40.2343300              0.2322410
     12.8202100              0.4690700
      4.3904370              0.3604550
SP   3   1.00
     11.6263580             -0.1149610              0.0675800
      2.7162800             -0.1691180              0.3239070
      0.7722180              1.1458520              0.7408950
SP   1   1.00
      0.2120313              1.0000000              1.0000000
D    1   1.00
      1.8260000              1.0000000
D    1   1.00
      0.4565000              1.0000000
F    1   1.00
      1.0000000              1.0000000
****
O     0
S    6   1.00
   5484.6717000              0.0018311
    825.2349500              0.0139501
    188.0469600              0.0684451
     52.9645000              0.2327143
     16.8975700              0.4701930
      5.7996353              0.3585209
SP   3   1.00
     15.5396160             -0.1107775              0.0708743
      3.5999336             -0.1480263              0.3397528
      1.0137618              1.1307670              0.7271586
SP   1   1.00
      0.2700058              1.0000000              1.0000000
D    1   1.00
      2.5840000              1.0000000
D    1   1.00
      0.6460000              1.0000000
F    1   1.00
      1.4000000              1.0000000
****
F     0
S    6   1.00
   7001.7130900              0.0018196169
   1051.3660900              0.0139160796
    239.2856900              0.0684053245
     67.3974453              0.233185760
     21.5199573              0.471267439
      7.40310130             0.356618546
SP   3   1.00
     20.8479528             -0.108506975            0.0716287243
      4.80830834            -0.146451658            0.3459121030
      1.34406986             1.128688580            0.7224699570
SP   1   1.00
      0.358151393            1.0000000              1.0000000
D    1   1.00
      3.5000000              1.0000000
D    1   1.00
      0.8750000              1.0000000
F    1   1.00
      1.8500000              1.0000000
****
Al     0
S    6   1.00
  13983.1000000              0.00194267
   2098.7500000              0.0148599
    477.7050000              0.0728494
    134.3600000              0.2468300
     42.8709000              0.4872580
     14.5189000              0.3234960
SP   6   1.00
    239.6680000             -0.00292619             0.00460285
     57.4419000             -0.0374080              0.0331990
     18.2859000             -0.1144870              0.1362820
      6.5991400              0.1156350              0.3304760
      2.4904900              0.6125950              0.4491460
      0.9445400              0.3937990              0.2657040
SP   3   1.00
      1.2779000             -0.2276060             -0.0175130
      0.3975900              0.00144583             0.2445330
      0.1600950              1.0927900              0.8049340
SP   1   1.00
      0.0556577              1.0000000              1.0000000
D    1   1.00
      0.6500000              1.0000000
D    1   1.00
      0.1625000              1.0000000
F    1   1.00
      0.2500000              1.0000000
****
Si     0
S    6   1.00
  16115.9000000              0.00195948
   2425.5800000              0.01492880
    553.8670000              0.07284780
    156.3400000              0.24613000
     50.0683000              0.48591400
     17.0178000              0.32500200
SP   6   1.00
    292.7180000             -0.00278094             0.00443826
     69.8731000             -0.03571460             0.03266790
     22.3363000             -0.11498500             0.13472100
      8.1503900              0.09356340             0.32867800
      3.1345800              0.60301700             0.44964000
      1.2254300              0.41895900             0.26137200
SP   3   1.00
      1.7273800             -0.24463000            -0.01779510
      0.5729220              0.00431572             0.25353900
      0.2221920              1.09818000             0.80066900
SP   1   1.00
      0.0778369              1.00000000             1.00000000
D    1   1.00
      0.9000000              1.0000000
D    1   1.00
      0.2250000              1.0000000
F    1   1.00
      0.3200000              1.0000000
****
P     0
S    6   1.00
  19413.3000000              0.0018516
   2909.4200000              0.0142062
    661.3640000              0.0699995
    185.7590000              0.2400790
     59.1943000              0.4847620
     20.0310000              0.3352000
SP   6   1.00
    339.4780000             -0.00278217             0.00456462
     81.0101000             -0.0360499              0.03369360
     25.8780000             -0.1166310              0.13975500
      9.4522100              0.0968328              0.33936200
      3.6656600              0.6144180              0.45092100
      1.4674600              0.4037980              0.23858600
SP   3   1.00
      2.1562300             -0.2529230             -0.01776530
      0.7489970              0.0328517              0.27405800
      0.2831450              1.0812500              0.78542100
SP   1   1.00
      0.0998317              1.0000000              1.00000000
D    1   1.00
      1.1000000              1.0000000
D    1   1.00
      0.2750000              1.0000000
F    1   1.00
      0.4500000              1.0000000
****
S     0
S    6   1.00
  21917.1000000              0.0018690
   3301.4900000              0.0142300
    754.1460000              0.0696960
    212.7110000              0.2384870
     67.9896000              0.4833070
     23.0515000              0.3380740
SP   6   1.00
    423.7350000             -0.0023767              0.0040610
    100.7100000             -0.0316930              0.0306810
     32.1599000             -0.1133170              0.1304520
     11.8079000              0.0560900              0.3272050
      4.6311000              0.5922550              0.4528510
      1.8702500              0.4550060              0.2560420
SP   3   1.00
      2.6158400             -0.2503740             -0.0145110
      0.9221670              0.0669570              0.3102630
      0.3412870              1.0545100              0.7544830
SP   1   1.00
      0.1171670              1.0000000              1.0000000
D    1   1.00
      1.3000000              1.0000000
D    1   1.00
      0.3250000              1.0000000
F    1   1.00
      0.5500000              1.0000000
****
Cl     0
S    6   1.00
  25180.1000000              0.0018330
   3780.3500000              0.0140340
    860.4740000              0.0690970
    242.1450000              0.2374520
     77.3349000              0.4830340
     26.2470000              0.3398560
SP   6   1.00
    491.7650000             -0.0022974              0.0039894
    116.9840000             -0.0307140              0.0303180
     37.4153000             -0.1125280              0.1298800
     13.7834000              0.0450160              0.3279510
      5.4521500              0.5893530              0.4535270
      2.2258800              0.4652060              0.2521540
SP   3   1.00
      3.1864900             -0.2518300             -0.0142990
      1.1442700              0.0615890              0.3235720
      0.4203770              1.0601800              0.7435070
SP   1   1.00
      0.1426570              1.0000000              1.0000000
D    1   1.00
      1.5000000              1.0000000
D    1   1.00
      0.3750000              1.0000000
F    1   1.00
      0.7000000              1.0000000
****
}

set {
reference uhf
freeze_core true
e_convergence 10
d_convergence 10
dft_spherical_points 1202
dft_radial_points 99
}

e = energy('b3lyp')

print_out('Grab this energy {0}'.format(e))
--------------------------------------------------------------------------

    Molecular point group: c1

    Geometry (in Bohr), charge = 0, multiplicity = 2:

       Center              X                  Y                   Z               Mass
    ------------   -----------------  -----------------  -----------------  -----------------
         C           -0.004503050156    -1.354302481327     0.001011385562    12.000000000000
         C           -0.020341144156     1.465378656973    -0.000565479038    12.000000000000
         H            1.929033382944    -2.120053968127     0.003938052262     1.007825032230
         H           -0.938409933556    -2.111413855127     1.668955184062     1.007825032230
         H           -0.946508174456    -2.112106034927    -1.676385200638     1.007825032230
         H            0.125556315244     2.510891320373    -1.749894996338     1.007825032230
         H            0.126143975244     2.510117543773     1.748077628062     1.007825032230

  Charge       = 0
  Multiplicity = 2
  Basis Set: ANONYMOUSD1AD6B0D
    Blend: 6-31G_2DFP_
  Basis Set: (ANONYMOUSD1AD6B0D AUX)
    Blend: DEF2-UNIVERSAL-JKFIT

    Orbital Energies [Eh]
    ---------------------

    Alpha Occupied:

       1A    -10.179463     2A    -10.174172     3A     -0.751557
       4A     -0.605033     5A     -0.446526     6A     -0.410192
       7A     -0.385194     8A     -0.354481     9A     -0.197390

    Alpha Virtual:

      10A      0.099039    11A      0.127945    12A      0.141241
      13A      0.165741    14A      0.203374    15A      0.247224
      16A      0.430333    17A      0.440614    18A      0.446329
      19A      0.449617    20A      0.478962    21A      0.520937
      22A      0.543531    23A      0.574153    24A      0.594206
      25A      0.619034    26A      0.633916    27A      0.639885
      28A      0.650531    29A      0.741398    30A      0.822961
      31A      0.865865    32A      0.930332    33A      0.977756
      34A      1.024089    35A      1.071893    36A      1.083675
      37A      1.085998    38A      1.179269    39A      1.220520
      40A      1.255045    41A      1.323931    42A      1.344158
      43A      1.367134    44A      1.419360    45A      1.446566
      46A      1.510136    47A      1.524375    48A      1.603797
      49A      1.763795    50A      1.807480    51A      1.952727
      52A      2.050410    53A      2.102765    54A      2.697487
      55A      2.801608    56A      2.829332    57A      2.860661
      58A      2.928703    59A      2.963216    60A      2.986538
      61A      3.080230    62A      3.092282    63A      3.158010
      64A      3.171549    65A      3.199029    66A      3.300413
      67A      3.360149    68A      3.388841    69A      3.494065
      70A      3.499872    71A      3.581830    72A      3.595375
      73A      3.712372    74A      3.807594    75A      3.972734
      76A      4.023364    77A      4.088652    78A      4.129029
      79A      4.189149    80A      4.198219    81A      4.204981
      82A      4.294763    83A      4.369364    84A      4.490996
      85A      4.498723    86A      4.529911    87A      4.865697
      88A      4.924410    89A      5.147391    90A      5.168771
      91A      5.278599    92A      5.330906

    Beta Occupied:

       1A    -10.174996     2A    -10.165526     3A     -0.734910
       4A     -0.580429     5A     -0.440395     6A     -0.395475
       7A     -0.377291     8A     -0.350004

    Beta Virtual:

       9A     -0.036192    10A      0.101692    11A      0.139101
      12A      0.142867    13A      0.170636    14A      0.206965
      15A      0.252960    16A      0.441680    17A      0.445129
      18A      0.455265    19A      0.459241    20A      0.487861
      21A      0.548829    22A      0.587725    23A      0.592304
      24A      0.602892    25A      0.624280    26A      0.641889
      27A      0.645628    28A      0.657944    29A      0.766775
      30A      0.822747    31A      0.868917    32A      0.948042
      33A      0.988998    34A      1.032575    35A      1.079965
      36A      1.088814    37A      1.102860    38A      1.182818
      39A      1.228271    40A      1.267467    41A      1.330591
      42A      1.351621    43A      1.373429    44A      1.425307
      45A      1.453983    46A      1.514733    47A      1.535612
      48A      1.615012    49A      1.770391    50A      1.813661
      51A      1.957165    52A      2.060340    53A      2.108284
      54A      2.720693    55A      2.823352    56A      2.831337
      57A      2.876639    58A      2.931231    59A      2.989851
      60A      3.023497    61A      3.093622    62A      3.119701
      63A      3.175732    64A      3.211679    65A      3.217855
      66A      3.339138    67A      3.371775    68A      3.408139
      69A      3.520317    70A      3.537208    71A      3.598063
      72A      3.605551    73A      3.730573    74A      3.807869
      75A      3.983837    76A      4.032029    77A      4.095058
      78A      4.138533    79A      4.202908    80A      4.203796
      81A      4.214231    82A      4.302674    83A      4.373601
      84A      4.498025    85A      4.509401    86A      4.537215
      87A      4.867040    88A      4.928761    89A      5.150706
      90A      5.179652    91A      5.285661    92A      5.333484

    Final Occupation by Irrep:
              A
    DOCC [     8 ]
    SOCC [     1 ]

  @DF-UKS Final Energy:   -79.16615217269853

   => Energetics <=

    Nuclear Repulsion Energy =             36.9334392336844957
    One-Electron Energy =                -178.0793213479401800
    Two-Electron Energy =                  72.2611986566954698
    DFT Exchange-Correlation Energy =     -10.2814687151383026
    Empirical Dispersion Energy =           0.0000000000000000
    VV10 Nonlocal Energy =                  0.0000000000000000
    Total Energy =                        -79.1661521726985313

  UHF NO Occupations:
  HONO-2 :    7  A 1.9997320
  HONO-1 :    8  A 1.9987110
  HONO-0 :    9  A 1.0000000
  LUNO+0 :   10  A 0.0012890
  LUNO+1 :   11  A 0.0002680
  LUNO+2 :   12  A 0.0002525
  LUNO+3 :   13  A 0.0002228

Computation Completed

Properties will be evaluated at   0.000000,   0.000000,   0.000000 [a0]

Properties computed using the SCF density matrix

  Nuclear Dipole Moment: [e a0]
     X:     0.1468      Y:    -0.6561      Z:    -0.0026

  Electronic Dipole Moment: [e a0]
     X:    -0.1050      Y:     0.5714      Z:     0.0041

  Dipole Moment: [e a0]
     X:     0.0417      Y:    -0.0847      Z:     0.0015     Total:     0.0945

  Dipole Moment: [D]
     X:     0.1061      Y:    -0.2154      Z:     0.0039     Total:     0.2402

*** tstop() called on n070 at Fri Nov  5 19:14:59 2021
Module time:
	user time   =      51.06 seconds =       0.85 minutes
	system time =       0.64 seconds =       0.01 minutes
	total time  =         52 seconds =       0.87 minutes
Total time:
	user time   =      51.06 seconds =       0.85 minutes
	system time =       0.64 seconds =       0.01 minutes
	total time  =         52 seconds =       0.87 minutes
Grab this energy -79.16615217269853
    Psi4 stopped on: Friday, 05 November 2021 07:14PM
    Psi4 wall time for execution: 0:00:51.79

*** Psi4 exiting successfully. Buy a developer a beer!
