                               Psi4 1.4a2.dev629

  ==> Input File <==

--------------------------------------------------------------------------
import os
memory 14 GB

molecule {
 C   -0.0055401293   -1.3515759563   -0.0002132061
 C   -0.0194486984    1.4650950941   -0.0037674067
 H    1.9279588166   -2.1125100391    0.0011294757
 H   -0.9449293501   -2.1116120940    1.6737506491
 H   -0.9434648473   -2.1222619060   -1.6703713685
 H    0.1278262497    2.5202767711   -1.7497377614
 H    0.1286505353    2.5008978626    1.7492096178
units bohr
0 2
}

basis {

assign 6-31g_2dfp_

[ 6-31g_2dfp_ ]

spherical

!----------------------------------------------------------------------
! Basis Set Exchange
! Version v0.8.13
! https://www.basissetexchange.org
!----------------------------------------------------------------------
!   Basis set: 6-31G(2df,p)
! Description: 6-31G(2df,p)
!        Role: orbital
!     Version: 0  (Data from the original Basis Set Exchange)
!----------------------------------------------------------------------

****
H     0
S    3   1.00
     18.7311370              0.03349460
      2.8253937              0.23472695
      0.6401217              0.81375733
S    1   1.00
      0.1612778              1.00000000
P    1   1.00
      1.5000000              1.0000000
P    1   1.00
      0.3750000              1.0000000
****
B     0
S    6   1.00
   2068.8823000              0.0018663
    310.6495700              0.0142515
     70.6830330              0.0695516
     19.8610800              0.2325729
      6.2993048              0.4670787
      2.1270270              0.3634314
SP   3   1.00
      4.7279710             -0.1303938              0.0745976
      1.1903377             -0.1307889              0.3078467
      0.3594117              1.1309444              0.7434568
SP   1   1.00
      0.1267512              1.0000000              1.0000000
D    1   1.00
      0.8020000              1.0000000
D    1   1.00
      0.2005000              1.0000000
F    1   1.00
      0.5000000              1.0000000
****
C     0
S    6   1.00
   3047.5249000              0.0018347
    457.3695100              0.0140373
    103.9486900              0.0688426
     29.2101550              0.2321844
      9.2866630              0.4679413
      3.1639270              0.3623120
SP   3   1.00
      7.8682724             -0.1193324              0.0689991
      1.8812885             -0.1608542              0.3164240
      0.5442493              1.1434564              0.7443083
SP   1   1.00
      0.1687144              1.0000000              1.0000000
D    1   1.00
      1.2520000              1.0000000
D    1   1.00
      0.3130000              1.0000000
F    1   1.00
      0.8000000              1.0000000
****
N     0
S    6   1.00
   4173.5110000              0.0018348
    627.4579000              0.0139950
    142.9021000              0.0685870
     40.2343300              0.2322410
     12.8202100              0.4690700
      4.3904370              0.3604550
SP   3   1.00
     11.6263580             -0.1149610              0.0675800
      2.7162800             -0.1691180              0.3239070
      0.7722180              1.1458520              0.7408950
SP   1   1.00
      0.2120313              1.0000000              1.0000000
D    1   1.00
      1.8260000              1.0000000
D    1   1.00
      0.4565000              1.0000000
F    1   1.00
      1.0000000              1.0000000
****
O     0
S    6   1.00
   5484.6717000              0.0018311
    825.2349500              0.0139501
    188.0469600              0.0684451
     52.9645000              0.2327143
     16.8975700              0.4701930
      5.7996353              0.3585209
SP   3   1.00
     15.5396160             -0.1107775              0.0708743
      3.5999336             -0.1480263              0.3397528
      1.0137618              1.1307670              0.7271586
SP   1   1.00
      0.2700058              1.0000000              1.0000000
D    1   1.00
      2.5840000              1.0000000
D    1   1.00
      0.6460000              1.0000000
F    1   1.00
      1.4000000              1.0000000
****
F     0
S    6   1.00
   7001.7130900              0.0018196169
   1051.3660900              0.0139160796
    239.2856900              0.0684053245
     67.3974453              0.233185760
     21.5199573              0.471267439
      7.40310130             0.356618546
SP   3   1.00
     20.8479528             -0.108506975            0.0716287243
      4.80830834            -0.146451658            0.3459121030
      1.34406986             1.128688580            0.7224699570
SP   1   1.00
      0.358151393            1.0000000              1.0000000
D    1   1.00
      3.5000000              1.0000000
D    1   1.00
      0.8750000              1.0000000
F    1   1.00
      1.8500000              1.0000000
****
Al     0
S    6   1.00
  13983.1000000              0.00194267
   2098.7500000              0.0148599
    477.7050000              0.0728494
    134.3600000              0.2468300
     42.8709000              0.4872580
     14.5189000              0.3234960
SP   6   1.00
    239.6680000             -0.00292619             0.00460285
     57.4419000             -0.0374080              0.0331990
     18.2859000             -0.1144870              0.1362820
      6.5991400              0.1156350              0.3304760
      2.4904900              0.6125950              0.4491460
      0.9445400              0.3937990              0.2657040
SP   3   1.00
      1.2779000             -0.2276060             -0.0175130
      0.3975900              0.00144583             0.2445330
      0.1600950              1.0927900              0.8049340
SP   1   1.00
      0.0556577              1.0000000              1.0000000
D    1   1.00
      0.6500000              1.0000000
D    1   1.00
      0.1625000              1.0000000
F    1   1.00
      0.2500000              1.0000000
****
Si     0
S    6   1.00
  16115.9000000              0.00195948
   2425.5800000              0.01492880
    553.8670000              0.07284780
    156.3400000              0.24613000
     50.0683000              0.48591400
     17.0178000              0.32500200
SP   6   1.00
    292.7180000             -0.00278094             0.00443826
     69.8731000             -0.03571460             0.03266790
     22.3363000             -0.11498500             0.13472100
      8.1503900              0.09356340             0.32867800
      3.1345800              0.60301700             0.44964000
      1.2254300              0.41895900             0.26137200
SP   3   1.00
      1.7273800             -0.24463000            -0.01779510
      0.5729220              0.00431572             0.25353900
      0.2221920              1.09818000             0.80066900
SP   1   1.00
      0.0778369              1.00000000             1.00000000
D    1   1.00
      0.9000000              1.0000000
D    1   1.00
      0.2250000              1.0000000
F    1   1.00
      0.3200000              1.0000000
****
P     0
S    6   1.00
  19413.3000000              0.0018516
   2909.4200000              0.0142062
    661.3640000              0.0699995
    185.7590000              0.2400790
     59.1943000              0.4847620
     20.0310000              0.3352000
SP   6   1.00
    339.4780000             -0.00278217             0.00456462
     81.0101000             -0.0360499              0.03369360
     25.8780000             -0.1166310              0.13975500
      9.4522100              0.0968328              0.33936200
      3.6656600              0.6144180              0.45092100
      1.4674600              0.4037980              0.23858600
SP   3   1.00
      2.1562300             -0.2529230             -0.01776530
      0.7489970              0.0328517              0.27405800
      0.2831450              1.0812500              0.78542100
SP   1   1.00
      0.0998317              1.0000000              1.00000000
D    1   1.00
      1.1000000              1.0000000
D    1   1.00
      0.2750000              1.0000000
F    1   1.00
      0.4500000              1.0000000
****
S     0
S    6   1.00
  21917.1000000              0.0018690
   3301.4900000              0.0142300
    754.1460000              0.0696960
    212.7110000              0.2384870
     67.9896000              0.4833070
     23.0515000              0.3380740
SP   6   1.00
    423.7350000             -0.0023767              0.0040610
    100.7100000             -0.0316930              0.0306810
     32.1599000             -0.1133170              0.1304520
     11.8079000              0.0560900              0.3272050
      4.6311000              0.5922550              0.4528510
      1.8702500              0.4550060              0.2560420
SP   3   1.00
      2.6158400             -0.2503740             -0.0145110
      0.9221670              0.0669570              0.3102630
      0.3412870              1.0545100              0.7544830
SP   1   1.00
      0.1171670              1.0000000              1.0000000
D    1   1.00
      1.3000000              1.0000000
D    1   1.00
      0.3250000              1.0000000
F    1   1.00
      0.5500000              1.0000000
****
Cl     0
S    6   1.00
  25180.1000000              0.0018330
   3780.3500000              0.0140340
    860.4740000              0.0690970
    242.1450000              0.2374520
     77.3349000              0.4830340
     26.2470000              0.3398560
SP   6   1.00
    491.7650000             -0.0022974              0.0039894
    116.9840000             -0.0307140              0.0303180
     37.4153000             -0.1125280              0.1298800
     13.7834000              0.0450160              0.3279510
      5.4521500              0.5893530              0.4535270
      2.2258800              0.4652060              0.2521540
SP   3   1.00
      3.1864900             -0.2518300             -0.0142990
      1.1442700              0.0615890              0.3235720
      0.4203770              1.0601800              0.7435070
SP   1   1.00
      0.1426570              1.0000000              1.0000000
D    1   1.00
      1.5000000              1.0000000
D    1   1.00
      0.3750000              1.0000000
F    1   1.00
      0.7000000              1.0000000
****
}

set {
reference uhf
freeze_core true
e_convergence 10
d_convergence 10
dft_spherical_points 1202
dft_radial_points 99
}

e = energy('b3lyp')

print_out('Grab this energy {0}'.format(e))
--------------------------------------------------------------------------

    Molecular point group: c1

    Geometry (in Bohr), charge = 0, multiplicity = 2:

       Center              X                  Y                   Z               Mass
    ------------   -----------------  -----------------  -----------------  -----------------
         C           -0.005488199544    -1.352493698888     0.001293574570    12.000000000000
         C           -0.019396768644     1.464177351512    -0.002260626030    12.000000000000
         H            1.928010746356    -2.113427781688     0.002636256370     1.007825032230
         H           -0.944877420344    -2.112529836588     1.675257429770     1.007825032230
         H           -0.943412917544    -2.123179648588    -1.668864587830     1.007825032230
         H            0.127878179456     2.519359028512    -1.748230980730     1.007825032230
         H            0.128702465056     2.499980120012     1.750716398470     1.007825032230

  Charge       = 0
  Multiplicity = 2
  Basis Set: ANONYMOUSA6DAF80C
    Blend: 6-31G_2DFP_
  Basis Set: (ANONYMOUSA6DAF80C AUX)
    Blend: DEF2-UNIVERSAL-JKFIT

    Orbital Energies [Eh]
    ---------------------

    Alpha Occupied:

       1A    -10.179463     2A    -10.174274     3A     -0.751751
       4A     -0.604916     5A     -0.446252     6A     -0.410409
       7A     -0.385714     8A     -0.353993     9A     -0.197304

    Alpha Virtual:

      10A      0.099017    11A      0.127935    12A      0.140760
      13A      0.165629    14A      0.203309    15A      0.247789
      16A      0.430496    17A      0.440778    18A      0.445987
      19A      0.449842    20A      0.478697    21A      0.520877
      22A      0.543584    23A      0.574200    24A      0.594309
      25A      0.618468    26A      0.633966    27A      0.639739
      28A      0.650062    29A      0.741208    30A      0.822698
      31A      0.865971    32A      0.931120    33A      0.976975
      34A      1.024647    35A      1.070882    36A      1.083959
      37A      1.086391    38A      1.180088    39A      1.220077
      40A      1.254138    41A      1.323378    42A      1.345399
      43A      1.368083    44A      1.419362    45A      1.445168
      46A      1.509944    47A      1.524495    48A      1.603579
      49A      1.764007    50A      1.806099    51A      1.952757
      52A      2.050406    53A      2.103418    54A      2.698361
      55A      2.801518    56A      2.828776    57A      2.860512
      58A      2.928592    59A      2.963271    60A      2.986130
      61A      3.079676    62A      3.093551    63A      3.158568
      64A      3.171152    65A      3.198902    66A      3.300406
      67A      3.358577    68A      3.390186    69A      3.493530
      70A      3.500228    71A      3.581641    72A      3.592845
      73A      3.713584    74A      3.806286    75A      3.973769
      76A      4.024450    77A      4.088666    78A      4.130035
      79A      4.189196    80A      4.199280    81A      4.206141
      82A      4.296238    83A      4.365439    84A      4.489619
      85A      4.501891    86A      4.527319    87A      4.864651
      88A      4.921860    89A      5.146551    90A      5.168590
      91A      5.278890    92A      5.329319

    Beta Occupied:

       1A    -10.175099     2A    -10.165526     3A     -0.735068
       4A     -0.580338     5A     -0.440094     6A     -0.395663
       7A     -0.377785     8A     -0.349546

    Beta Virtual:

       9A     -0.036159    10A      0.101662    11A      0.139098
      12A      0.142390    13A      0.170514    14A      0.206911
      15A      0.253510    16A      0.441849    17A      0.444881
      18A      0.455503    19A      0.459301    20A      0.487620
      21A      0.549094    22A      0.587616    23A      0.592078
      24A      0.602994    25A      0.623793    26A      0.641914
      27A      0.645474    28A      0.657506    29A      0.766536
      30A      0.822496    31A      0.869033    32A      0.948813
      33A      0.988140    34A      1.033264    35A      1.078922
      36A      1.089927    37A      1.102351    38A      1.183781
      39A      1.227757    40A      1.266486    41A      1.330006
      42A      1.352903    43A      1.374426    44A      1.425377
      45A      1.452648    46A      1.514532    47A      1.535753
      48A      1.614708    49A      1.770531    50A      1.812410
      51A      1.957189    52A      2.060381    53A      2.108963
      54A      2.721571    55A      2.823327    56A      2.830633
      57A      2.876562    58A      2.931142    59A      2.990174
      60A      3.022868    61A      3.093204    62A      3.120668
      63A      3.176464    64A      3.211291    65A      3.217709
      66A      3.339072    67A      3.370810    68A      3.408965
      69A      3.519971    70A      3.536478    71A      3.598497
      72A      3.603078    73A      3.731734    74A      3.806637
      75A      3.984711    76A      4.033237    77A      4.095146
      78A      4.139553    79A      4.203418    80A      4.204262
      81A      4.215563    82A      4.304200    83A      4.369727
      84A      4.496656    85A      4.512479    86A      4.534661
      87A      4.866018    88A      4.926188    89A      5.149889
      90A      5.179465    91A      5.286048    92A      5.331880

    Final Occupation by Irrep:
              A
    DOCC [     8 ]
    SOCC [     1 ]

  @DF-UKS Final Energy:   -79.16618052033992

   => Energetics <=

    Nuclear Repulsion Energy =             36.9402522277467682
    One-Electron Energy =                -178.0930640710492980
    Two-Electron Energy =                  72.2677925083036996
    DFT Exchange-Correlation Energy =     -10.2811611853411069
    Empirical Dispersion Energy =           0.0000000000000000
    VV10 Nonlocal Energy =                  0.0000000000000000
    Total Energy =                        -79.1661805203399211

  UHF NO Occupations:
  HONO-2 :    7  A 1.9997317
  HONO-1 :    8  A 1.9987118
  HONO-0 :    9  A 1.0000000
  LUNO+0 :   10  A 0.0012882
  LUNO+1 :   11  A 0.0002683
  LUNO+2 :   12  A 0.0002531
  LUNO+3 :   13  A 0.0002218

Computation Completed

Properties will be evaluated at   0.000000,   0.000000,   0.000000 [a0]

Properties computed using the SCF density matrix

  Nuclear Dipole Moment: [e a0]
     X:     0.1470      Y:    -0.6597      Z:     0.0057

  Electronic Dipole Moment: [e a0]
     X:    -0.1044      Y:     0.5747      Z:    -0.0051

  Dipole Moment: [e a0]
     X:     0.0426      Y:    -0.0849      Z:     0.0006     Total:     0.0950

  Dipole Moment: [D]
     X:     0.1082      Y:    -0.2159      Z:     0.0016     Total:     0.2415

*** tstop() called on n044 at Fri Nov  5 18:07:20 2021
Module time:
	user time   =      61.37 seconds =       1.02 minutes
	system time =       0.45 seconds =       0.01 minutes
	total time  =         62 seconds =       1.03 minutes
Total time:
	user time   =      61.37 seconds =       1.02 minutes
	system time =       0.45 seconds =       0.01 minutes
	total time  =         62 seconds =       1.03 minutes
Grab this energy -79.16618052033992
    Psi4 stopped on: Friday, 05 November 2021 06:07PM
    Psi4 wall time for execution: 0:01:01.86

*** Psi4 exiting successfully. Buy a developer a beer!
