                               Psi4 1.4a2.dev629

  ==> Input File <==

--------------------------------------------------------------------------
import os
memory 14 GB

molecule {
 O   -0.0000000000   -2.0927310521    0.2724909103
 N    0.0000000000    0.0048340683   -0.6193622804
 O    0.0000000000    2.0878969838    0.2704479611
units bohr
0 2
}

basis {

assign 6-31g_2dfp_

[ 6-31g_2dfp_ ]

spherical

!----------------------------------------------------------------------
! Basis Set Exchange
! Version v0.8.13
! https://www.basissetexchange.org
!----------------------------------------------------------------------
!   Basis set: 6-31G(2df,p)
! Description: 6-31G(2df,p)
!        Role: orbital
!     Version: 0  (Data from the original Basis Set Exchange)
!----------------------------------------------------------------------

****
H     0
S    3   1.00
     18.7311370              0.03349460
      2.8253937              0.23472695
      0.6401217              0.81375733
S    1   1.00
      0.1612778              1.00000000
P    1   1.00
      1.5000000              1.0000000
P    1   1.00
      0.3750000              1.0000000
****
B     0
S    6   1.00
   2068.8823000              0.0018663
    310.6495700              0.0142515
     70.6830330              0.0695516
     19.8610800              0.2325729
      6.2993048              0.4670787
      2.1270270              0.3634314
SP   3   1.00
      4.7279710             -0.1303938              0.0745976
      1.1903377             -0.1307889              0.3078467
      0.3594117              1.1309444              0.7434568
SP   1   1.00
      0.1267512              1.0000000              1.0000000
D    1   1.00
      0.8020000              1.0000000
D    1   1.00
      0.2005000              1.0000000
F    1   1.00
      0.5000000              1.0000000
****
C     0
S    6   1.00
   3047.5249000              0.0018347
    457.3695100              0.0140373
    103.9486900              0.0688426
     29.2101550              0.2321844
      9.2866630              0.4679413
      3.1639270              0.3623120
SP   3   1.00
      7.8682724             -0.1193324              0.0689991
      1.8812885             -0.1608542              0.3164240
      0.5442493              1.1434564              0.7443083
SP   1   1.00
      0.1687144              1.0000000              1.0000000
D    1   1.00
      1.2520000              1.0000000
D    1   1.00
      0.3130000              1.0000000
F    1   1.00
      0.8000000              1.0000000
****
N     0
S    6   1.00
   4173.5110000              0.0018348
    627.4579000              0.0139950
    142.9021000              0.0685870
     40.2343300              0.2322410
     12.8202100              0.4690700
      4.3904370              0.3604550
SP   3   1.00
     11.6263580             -0.1149610              0.0675800
      2.7162800             -0.1691180              0.3239070
      0.7722180              1.1458520              0.7408950
SP   1   1.00
      0.2120313              1.0000000              1.0000000
D    1   1.00
      1.8260000              1.0000000
D    1   1.00
      0.4565000              1.0000000
F    1   1.00
      1.0000000              1.0000000
****
O     0
S    6   1.00
   5484.6717000              0.0018311
    825.2349500              0.0139501
    188.0469600              0.0684451
     52.9645000              0.2327143
     16.8975700              0.4701930
      5.7996353              0.3585209
SP   3   1.00
     15.5396160             -0.1107775              0.0708743
      3.5999336             -0.1480263              0.3397528
      1.0137618              1.1307670              0.7271586
SP   1   1.00
      0.2700058              1.0000000              1.0000000
D    1   1.00
      2.5840000              1.0000000
D    1   1.00
      0.6460000              1.0000000
F    1   1.00
      1.4000000              1.0000000
****
F     0
S    6   1.00
   7001.7130900              0.0018196169
   1051.3660900              0.0139160796
    239.2856900              0.0684053245
     67.3974453              0.233185760
     21.5199573              0.471267439
      7.40310130             0.356618546
SP   3   1.00
     20.8479528             -0.108506975            0.0716287243
      4.80830834            -0.146451658            0.3459121030
      1.34406986             1.128688580            0.7224699570
SP   1   1.00
      0.358151393            1.0000000              1.0000000
D    1   1.00
      3.5000000              1.0000000
D    1   1.00
      0.8750000              1.0000000
F    1   1.00
      1.8500000              1.0000000
****
Al     0
S    6   1.00
  13983.1000000              0.00194267
   2098.7500000              0.0148599
    477.7050000              0.0728494
    134.3600000              0.2468300
     42.8709000              0.4872580
     14.5189000              0.3234960
SP   6   1.00
    239.6680000             -0.00292619             0.00460285
     57.4419000             -0.0374080              0.0331990
     18.2859000             -0.1144870              0.1362820
      6.5991400              0.1156350              0.3304760
      2.4904900              0.6125950              0.4491460
      0.9445400              0.3937990              0.2657040
SP   3   1.00
      1.2779000             -0.2276060             -0.0175130
      0.3975900              0.00144583             0.2445330
      0.1600950              1.0927900              0.8049340
SP   1   1.00
      0.0556577              1.0000000              1.0000000
D    1   1.00
      0.6500000              1.0000000
D    1   1.00
      0.1625000              1.0000000
F    1   1.00
      0.2500000              1.0000000
****
Si     0
S    6   1.00
  16115.9000000              0.00195948
   2425.5800000              0.01492880
    553.8670000              0.07284780
    156.3400000              0.24613000
     50.0683000              0.48591400
     17.0178000              0.32500200
SP   6   1.00
    292.7180000             -0.00278094             0.00443826
     69.8731000             -0.03571460             0.03266790
     22.3363000             -0.11498500             0.13472100
      8.1503900              0.09356340             0.32867800
      3.1345800              0.60301700             0.44964000
      1.2254300              0.41895900             0.26137200
SP   3   1.00
      1.7273800             -0.24463000            -0.01779510
      0.5729220              0.00431572             0.25353900
      0.2221920              1.09818000             0.80066900
SP   1   1.00
      0.0778369              1.00000000             1.00000000
D    1   1.00
      0.9000000              1.0000000
D    1   1.00
      0.2250000              1.0000000
F    1   1.00
      0.3200000              1.0000000
****
P     0
S    6   1.00
  19413.3000000              0.0018516
   2909.4200000              0.0142062
    661.3640000              0.0699995
    185.7590000              0.2400790
     59.1943000              0.4847620
     20.0310000              0.3352000
SP   6   1.00
    339.4780000             -0.00278217             0.00456462
     81.0101000             -0.0360499              0.03369360
     25.8780000             -0.1166310              0.13975500
      9.4522100              0.0968328              0.33936200
      3.6656600              0.6144180              0.45092100
      1.4674600              0.4037980              0.23858600
SP   3   1.00
      2.1562300             -0.2529230             -0.01776530
      0.7489970              0.0328517              0.27405800
      0.2831450              1.0812500              0.78542100
SP   1   1.00
      0.0998317              1.0000000              1.00000000
D    1   1.00
      1.1000000              1.0000000
D    1   1.00
      0.2750000              1.0000000
F    1   1.00
      0.4500000              1.0000000
****
S     0
S    6   1.00
  21917.1000000              0.0018690
   3301.4900000              0.0142300
    754.1460000              0.0696960
    212.7110000              0.2384870
     67.9896000              0.4833070
     23.0515000              0.3380740
SP   6   1.00
    423.7350000             -0.0023767              0.0040610
    100.7100000             -0.0316930              0.0306810
     32.1599000             -0.1133170              0.1304520
     11.8079000              0.0560900              0.3272050
      4.6311000              0.5922550              0.4528510
      1.8702500              0.4550060              0.2560420
SP   3   1.00
      2.6158400             -0.2503740             -0.0145110
      0.9221670              0.0669570              0.3102630
      0.3412870              1.0545100              0.7544830
SP   1   1.00
      0.1171670              1.0000000              1.0000000
D    1   1.00
      1.3000000              1.0000000
D    1   1.00
      0.3250000              1.0000000
F    1   1.00
      0.5500000              1.0000000
****
Cl     0
S    6   1.00
  25180.1000000              0.0018330
   3780.3500000              0.0140340
    860.4740000              0.0690970
    242.1450000              0.2374520
     77.3349000              0.4830340
     26.2470000              0.3398560
SP   6   1.00
    491.7650000             -0.0022974              0.0039894
    116.9840000             -0.0307140              0.0303180
     37.4153000             -0.1125280              0.1298800
     13.7834000              0.0450160              0.3279510
      5.4521500              0.5893530              0.4535270
      2.2258800              0.4652060              0.2521540
SP   3   1.00
      3.1864900             -0.2518300             -0.0142990
      1.1442700              0.0615890              0.3235720
      0.4203770              1.0601800              0.7435070
SP   1   1.00
      0.1426570              1.0000000              1.0000000
D    1   1.00
      1.5000000              1.0000000
D    1   1.00
      0.3750000              1.0000000
F    1   1.00
      0.7000000              1.0000000
****
}

set {
reference uhf
freeze_core true
e_convergence 10
d_convergence 10
dft_spherical_points 1202
dft_radial_points 99
}

e = energy('b3lyp')

print_out('Grab this energy {0}'.format(e))
--------------------------------------------------------------------------

    Molecular point group: cs

    Geometry (in Bohr), charge = 0, multiplicity = 2:

       Center              X                  Y                   Z               Mass
    ------------   -----------------  -----------------  -----------------  -----------------
         O            2.092521700376    -0.272245545409     0.000000000000    15.994914619570
         N           -0.005043420024     0.619607645291     0.000000000000    14.003074004430
         O           -2.088106335524    -0.270202596209     0.000000000000    15.994914619570

  Charge       = 0
  Multiplicity = 2
  Basis Set: ANONYMOUS93268515
    Blend: 6-31G_2DFP_
  Basis Set: (ANONYMOUS93268515 AUX)
    Blend: DEF2-UNIVERSAL-JKFIT

    Orbital Energies [Eh]
    ---------------------

    Alpha Occupied:

       1Ap   -19.259086     2Ap   -19.257171     3Ap   -14.578493
       4Ap    -1.277201     5Ap    -1.131385     6Ap    -0.677169
       7Ap    -0.573329     8Ap    -0.570692     1App   -0.562955
       9Ap    -0.380068     2App   -0.375555    10Ap    -0.286009

    Alpha Virtual:

       3App   -0.087509    11Ap     0.211689    12Ap     0.363781
      13Ap     0.535866    14Ap     0.547169     4App    0.601126
      15Ap     0.625384    16Ap     0.755608    17Ap     0.827260
       5App    0.839855    18Ap     0.843912     6App    0.871866
      19Ap     0.900289    20Ap     0.929228     7App    0.956040
       8App    1.060161    21Ap     1.350529    22Ap     1.433963
       9App    1.441931    23Ap     1.504081    10App    1.545299
      24Ap     1.574913    25Ap     1.641161    26Ap     1.880978
      11App    1.982427    27Ap     2.106325    12App    2.200249
      28Ap     2.365896    29Ap     2.524652    30Ap     2.553136
      13App    3.413005    31Ap     3.429649    14App    3.693899
      32Ap     3.711696    15App    3.903862    33Ap     4.059265
      34Ap     4.127471    35Ap     4.429115    16App    4.444092
      17App    4.553083    36Ap     4.576197    37Ap     4.586405
      38Ap     4.953377    18App    4.953544    19App    4.982010
      39Ap     4.986655    20App    5.283659    21App    5.366111
      40Ap     5.388154    41Ap     5.419471    42Ap     5.644614
      22App    5.962646    43Ap     6.053432    23App    6.149254
      44Ap     6.480567    45Ap     6.518881    24App    6.646291
      46Ap     6.673079    25App    6.674269    47Ap     6.714537
      48Ap     6.928146    26App    6.952910    27App    7.052231
      49Ap     7.092528    50Ap     7.538605    51Ap     7.706962

    Beta Occupied:

       1Ap   -19.250119     2Ap   -19.248098     3Ap   -14.568028
       4Ap    -1.258550     5Ap    -1.110124     6Ap    -0.643938
       1App   -0.552432     7Ap    -0.547237     8Ap    -0.527802
       2App   -0.368421     9Ap    -0.339534

    Beta Virtual:

      10Ap    -0.140193     3App   -0.071206    11Ap     0.224788
      12Ap     0.386543    13Ap     0.552075    14Ap     0.554780
       4App    0.609034    15Ap     0.654268    16Ap     0.762543
      17Ap     0.840230     5App    0.843872    18Ap     0.864936
       6App    0.886184    19Ap     0.923060    20Ap     0.947514
       7App    0.962770     8App    1.064160    21Ap     1.362950
       9App    1.449507    22Ap     1.454513    23Ap     1.518309
      10App    1.565199    24Ap     1.586387    25Ap     1.648814
      26Ap     1.897667    11App    1.986024    27Ap     2.126056
      12App    2.211770    28Ap     2.381206    29Ap     2.534671
      30Ap     2.576373    13App    3.438823    31Ap     3.454030
      14App    3.701491    32Ap     3.721500    15App    3.912857
      33Ap     4.077123    34Ap     4.141909    16App    4.455778
      35Ap     4.456995    17App    4.593841    36Ap     4.608605
      37Ap     4.616145    18App    4.966609    38Ap     4.966811
      19App    5.001631    39Ap     5.005488    20App    5.305242
      21App    5.372706    40Ap     5.405402    41Ap     5.429681
      42Ap     5.673089    22App    5.977880    43Ap     6.076004
      23App    6.155964    44Ap     6.500940    45Ap     6.539875
      24App    6.668651    46Ap     6.699237    25App    6.707045
      47Ap     6.739283    26App    6.958273    48Ap     6.961173
      27App    7.065882    49Ap     7.123465    50Ap     7.558647
      51Ap     7.723425

    Final Occupation by Irrep:
             Ap   App
    DOCC [     9,    2 ]
    SOCC [     1,    0 ]

  @DF-UKS Final Energy:  -205.08016471146834

   => Energetics <=

    Nuclear Repulsion Energy =             64.6001164046176939
    One-Electron Energy =                -408.1118617114182712
    Two-Electron Energy =                 157.7918038969775694
    DFT Exchange-Correlation Energy =     -19.3602233016453482
    Empirical Dispersion Energy =           0.0000000000000000
    VV10 Nonlocal Energy =                  0.0000000000000000
    Total Energy =                       -205.0801647114683419

  UHF NO Occupations:
  HONO-2 :    8 Ap 1.9994463
  HONO-1 :    9 Ap 1.9990680
  HONO-0 :   10 Ap 1.0000000
  LUNO+0 :   11 Ap 0.0009320
  LUNO+1 :   12 Ap 0.0005537
  LUNO+2 :    3App 0.0001300
  LUNO+3 :   13 Ap 0.0000749

Computation Completed

Properties will be evaluated at   0.000000,   0.000000,   0.000000 [a0]

Properties computed using the SCF density matrix

  Nuclear Dipole Moment: [e a0]
     X:     0.0000      Y:    -0.0023      Z:     0.0000

  Electronic Dipole Moment: [e a0]
     X:    -0.0134      Y:     0.1296      Z:     0.0000

  Dipole Moment: [e a0]
     X:    -0.0134      Y:     0.1273      Z:     0.0000     Total:     0.1280

  Dipole Moment: [D]
     X:    -0.0341      Y:     0.3234      Z:     0.0000     Total:     0.3252

*** tstop() called on n035 at Fri Nov  5 10:47:14 2021
Module time:
	user time   =      26.48 seconds =       0.44 minutes
	system time =       0.19 seconds =       0.00 minutes
	total time  =         26 seconds =       0.43 minutes
Total time:
	user time   =      26.48 seconds =       0.44 minutes
	system time =       0.19 seconds =       0.00 minutes
	total time  =         26 seconds =       0.43 minutes
Grab this energy -205.08016471146834
    Psi4 stopped on: Friday, 05 November 2021 10:47AM
    Psi4 wall time for execution: 0:00:26.73

*** Psi4 exiting successfully. Buy a developer a beer!
