                               Psi4 1.4a2.dev629

  ==> Input File <==

--------------------------------------------------------------------------
import os
memory 14 GB

molecule {
 O   -0.0000000000   -2.0828259821    0.2736849155
 N    0.0000000000   -0.0000000000   -0.6237932399
 O    0.0000000000    2.0828259821    0.2736849155
units bohr
0 2
}

basis {

assign 6-31g_2dfp_

[ 6-31g_2dfp_ ]

spherical

!----------------------------------------------------------------------
! Basis Set Exchange
! Version v0.8.13
! https://www.basissetexchange.org
!----------------------------------------------------------------------
!   Basis set: 6-31G(2df,p)
! Description: 6-31G(2df,p)
!        Role: orbital
!     Version: 0  (Data from the original Basis Set Exchange)
!----------------------------------------------------------------------

****
H     0
S    3   1.00
     18.7311370              0.03349460
      2.8253937              0.23472695
      0.6401217              0.81375733
S    1   1.00
      0.1612778              1.00000000
P    1   1.00
      1.5000000              1.0000000
P    1   1.00
      0.3750000              1.0000000
****
B     0
S    6   1.00
   2068.8823000              0.0018663
    310.6495700              0.0142515
     70.6830330              0.0695516
     19.8610800              0.2325729
      6.2993048              0.4670787
      2.1270270              0.3634314
SP   3   1.00
      4.7279710             -0.1303938              0.0745976
      1.1903377             -0.1307889              0.3078467
      0.3594117              1.1309444              0.7434568
SP   1   1.00
      0.1267512              1.0000000              1.0000000
D    1   1.00
      0.8020000              1.0000000
D    1   1.00
      0.2005000              1.0000000
F    1   1.00
      0.5000000              1.0000000
****
C     0
S    6   1.00
   3047.5249000              0.0018347
    457.3695100              0.0140373
    103.9486900              0.0688426
     29.2101550              0.2321844
      9.2866630              0.4679413
      3.1639270              0.3623120
SP   3   1.00
      7.8682724             -0.1193324              0.0689991
      1.8812885             -0.1608542              0.3164240
      0.5442493              1.1434564              0.7443083
SP   1   1.00
      0.1687144              1.0000000              1.0000000
D    1   1.00
      1.2520000              1.0000000
D    1   1.00
      0.3130000              1.0000000
F    1   1.00
      0.8000000              1.0000000
****
N     0
S    6   1.00
   4173.5110000              0.0018348
    627.4579000              0.0139950
    142.9021000              0.0685870
     40.2343300              0.2322410
     12.8202100              0.4690700
      4.3904370              0.3604550
SP   3   1.00
     11.6263580             -0.1149610              0.0675800
      2.7162800             -0.1691180              0.3239070
      0.7722180              1.1458520              0.7408950
SP   1   1.00
      0.2120313              1.0000000              1.0000000
D    1   1.00
      1.8260000              1.0000000
D    1   1.00
      0.4565000              1.0000000
F    1   1.00
      1.0000000              1.0000000
****
O     0
S    6   1.00
   5484.6717000              0.0018311
    825.2349500              0.0139501
    188.0469600              0.0684451
     52.9645000              0.2327143
     16.8975700              0.4701930
      5.7996353              0.3585209
SP   3   1.00
     15.5396160             -0.1107775              0.0708743
      3.5999336             -0.1480263              0.3397528
      1.0137618              1.1307670              0.7271586
SP   1   1.00
      0.2700058              1.0000000              1.0000000
D    1   1.00
      2.5840000              1.0000000
D    1   1.00
      0.6460000              1.0000000
F    1   1.00
      1.4000000              1.0000000
****
F     0
S    6   1.00
   7001.7130900              0.0018196169
   1051.3660900              0.0139160796
    239.2856900              0.0684053245
     67.3974453              0.233185760
     21.5199573              0.471267439
      7.40310130             0.356618546
SP   3   1.00
     20.8479528             -0.108506975            0.0716287243
      4.80830834            -0.146451658            0.3459121030
      1.34406986             1.128688580            0.7224699570
SP   1   1.00
      0.358151393            1.0000000              1.0000000
D    1   1.00
      3.5000000              1.0000000
D    1   1.00
      0.8750000              1.0000000
F    1   1.00
      1.8500000              1.0000000
****
Al     0
S    6   1.00
  13983.1000000              0.00194267
   2098.7500000              0.0148599
    477.7050000              0.0728494
    134.3600000              0.2468300
     42.8709000              0.4872580
     14.5189000              0.3234960
SP   6   1.00
    239.6680000             -0.00292619             0.00460285
     57.4419000             -0.0374080              0.0331990
     18.2859000             -0.1144870              0.1362820
      6.5991400              0.1156350              0.3304760
      2.4904900              0.6125950              0.4491460
      0.9445400              0.3937990              0.2657040
SP   3   1.00
      1.2779000             -0.2276060             -0.0175130
      0.3975900              0.00144583             0.2445330
      0.1600950              1.0927900              0.8049340
SP   1   1.00
      0.0556577              1.0000000              1.0000000
D    1   1.00
      0.6500000              1.0000000
D    1   1.00
      0.1625000              1.0000000
F    1   1.00
      0.2500000              1.0000000
****
Si     0
S    6   1.00
  16115.9000000              0.00195948
   2425.5800000              0.01492880
    553.8670000              0.07284780
    156.3400000              0.24613000
     50.0683000              0.48591400
     17.0178000              0.32500200
SP   6   1.00
    292.7180000             -0.00278094             0.00443826
     69.8731000             -0.03571460             0.03266790
     22.3363000             -0.11498500             0.13472100
      8.1503900              0.09356340             0.32867800
      3.1345800              0.60301700             0.44964000
      1.2254300              0.41895900             0.26137200
SP   3   1.00
      1.7273800             -0.24463000            -0.01779510
      0.5729220              0.00431572             0.25353900
      0.2221920              1.09818000             0.80066900
SP   1   1.00
      0.0778369              1.00000000             1.00000000
D    1   1.00
      0.9000000              1.0000000
D    1   1.00
      0.2250000              1.0000000
F    1   1.00
      0.3200000              1.0000000
****
P     0
S    6   1.00
  19413.3000000              0.0018516
   2909.4200000              0.0142062
    661.3640000              0.0699995
    185.7590000              0.2400790
     59.1943000              0.4847620
     20.0310000              0.3352000
SP   6   1.00
    339.4780000             -0.00278217             0.00456462
     81.0101000             -0.0360499              0.03369360
     25.8780000             -0.1166310              0.13975500
      9.4522100              0.0968328              0.33936200
      3.6656600              0.6144180              0.45092100
      1.4674600              0.4037980              0.23858600
SP   3   1.00
      2.1562300             -0.2529230             -0.01776530
      0.7489970              0.0328517              0.27405800
      0.2831450              1.0812500              0.78542100
SP   1   1.00
      0.0998317              1.0000000              1.00000000
D    1   1.00
      1.1000000              1.0000000
D    1   1.00
      0.2750000              1.0000000
F    1   1.00
      0.4500000              1.0000000
****
S     0
S    6   1.00
  21917.1000000              0.0018690
   3301.4900000              0.0142300
    754.1460000              0.0696960
    212.7110000              0.2384870
     67.9896000              0.4833070
     23.0515000              0.3380740
SP   6   1.00
    423.7350000             -0.0023767              0.0040610
    100.7100000             -0.0316930              0.0306810
     32.1599000             -0.1133170              0.1304520
     11.8079000              0.0560900              0.3272050
      4.6311000              0.5922550              0.4528510
      1.8702500              0.4550060              0.2560420
SP   3   1.00
      2.6158400             -0.2503740             -0.0145110
      0.9221670              0.0669570              0.3102630
      0.3412870              1.0545100              0.7544830
SP   1   1.00
      0.1171670              1.0000000              1.0000000
D    1   1.00
      1.3000000              1.0000000
D    1   1.00
      0.3250000              1.0000000
F    1   1.00
      0.5500000              1.0000000
****
Cl     0
S    6   1.00
  25180.1000000              0.0018330
   3780.3500000              0.0140340
    860.4740000              0.0690970
    242.1450000              0.2374520
     77.3349000              0.4830340
     26.2470000              0.3398560
SP   6   1.00
    491.7650000             -0.0022974              0.0039894
    116.9840000             -0.0307140              0.0303180
     37.4153000             -0.1125280              0.1298800
     13.7834000              0.0450160              0.3279510
      5.4521500              0.5893530              0.4535270
      2.2258800              0.4652060              0.2521540
SP   3   1.00
      3.1864900             -0.2518300             -0.0142990
      1.1442700              0.0615890              0.3235720
      0.4203770              1.0601800              0.7435070
SP   1   1.00
      0.1426570              1.0000000              1.0000000
D    1   1.00
      1.5000000              1.0000000
D    1   1.00
      0.3750000              1.0000000
F    1   1.00
      0.7000000              1.0000000
****
}

set {
reference uhf
freeze_core true
e_convergence 10
d_convergence 10
dft_spherical_points 1202
dft_radial_points 99
}

e = energy('b3lyp')

print_out('Grab this energy {0}'.format(e))
--------------------------------------------------------------------------

    Molecular point group: c2v

    Geometry (in Bohr), charge = 0, multiplicity = 2:

       Center              X                  Y                   Z               Mass
    ------------   -----------------  -----------------  -----------------  -----------------
         O            0.000000000000    -2.082825982100     0.273247656511    15.994914619570
         N            0.000000000000     0.000000000000    -0.624230498889    14.003074004430
         O           -0.000000000000     2.082825982100     0.273247656511    15.994914619570

  Charge       = 0
  Multiplicity = 2
  Basis Set: ANONYMOUS4B103E4E
    Blend: 6-31G_2DFP_
  Basis Set: (ANONYMOUS4B103E4E AUX)
    Blend: DEF2-UNIVERSAL-JKFIT

    Orbital Energies [Eh]
    ---------------------

    Alpha Occupied:

       1B2   -19.257474     1A1   -19.257452     2A1   -14.578303
       3A1    -1.279193     2B2    -1.132174     4A1    -0.676712
       5A1    -0.574135     3B2    -0.570720     1B1    -0.563981
       4B2    -0.379529     1A2    -0.375445     6A1    -0.286404

    Alpha Virtual:

       2B1    -0.086405     7A1     0.217019     5B2     0.363900
       8A1     0.535177     6B2     0.548083     3B1     0.600511
       9A1     0.625311    10A1     0.756117     7B2     0.826601
       2A2     0.839810    11A1     0.842586     4B1     0.872308
       8B2     0.901763    12A1     0.930263     5B1     0.955903
       3A2     1.060888     9B2     1.351902    13A1     1.433774
       4A2     1.443989    10B2     1.504468     6B1     1.545332
      14A1     1.576954    11B2     1.647977    15A1     1.881652
       7B1     1.986124    12B2     2.105464     5A2     2.198808
      16A1     2.369508    13B2     2.528509    17A1     2.551086
       8B1     3.413431    18A1     3.430894     6A2     3.699401
      14B2     3.717892     9B1     3.903535    15B2     4.060947
      19A1     4.130603    20A1     4.429404     7A2     4.439891
      10B1     4.550496    16B2     4.575985    21A1     4.587375
      17B2     4.953496     8A2     4.953634    11B1     4.982644
      22A1     4.987394     9A2     5.282535    12B1     5.376157
      18B2     5.390092    23A1     5.429878    24A1     5.649072
      13B1     5.959574    19B2     6.059019    10A2     6.159286
      20B2     6.492882    25A1     6.517612    11A2     6.647083
      21B2     6.674373    14B1     6.674508    26A1     6.715667
      22B2     6.931339    15B1     6.955593    12A2     7.050854
      27A1     7.092576    23B2     7.537962    28A1     7.710134

    Beta Occupied:

       1B2   -19.248461     1A1   -19.248435     2A1   -14.567867
       3A1    -1.260595     2B2    -1.110902     4A1    -0.643342
       1B1    -0.553472     3B2    -0.547269     5A1    -0.528777
       1A2    -0.368300     4B2    -0.339002

    Beta Virtual:

       6A1    -0.140665     2B1    -0.070094     7A1     0.230066
       5B2     0.386526     8A1     0.552021     6B2     0.555327
       3B1     0.608413     9A1     0.654060    10A1     0.763089
       7B2     0.839444     2A2     0.843823    11A1     0.863596
       4B1     0.886527     8B2     0.924666    12A1     0.948509
       5B1     0.962703     3A2     1.064909     9B2     1.364326
       4A2     1.451581    13A1     1.454582    10B2     1.518554
       6B1     1.565263    14A1     1.588245    11B2     1.655911
      15A1     1.898349     7B1     1.989787    12B2     2.125182
       5A2     2.210319    16A1     2.384838    13B2     2.538296
      17A1     2.574644     8B1     3.439113    18A1     3.455107
       6A2     3.706952    14B2     3.727687     9B1     3.912521
      15B2     4.078859    19A1     4.144985     7A2     4.451603
      20A1     4.457894    10B1     4.591175    16B2     4.608355
      21A1     4.616475     8A2     4.966679    17B2     4.966930
      11B1     5.002288    22A1     5.006228     9A2     5.304142
      12B1     5.382768    18B2     5.407490    23A1     5.440148
      24A1     5.677430    13B1     5.974865    19B2     6.081564
      10A2     6.166018    20B2     6.513253    25A1     6.538577
      11A2     6.669431    21B2     6.700982    14B1     6.707307
      26A1     6.740403    15B1     6.960962    22B2     6.964106
      12A2     7.064500    27A1     7.123505    23B2     7.557863
      28A1     7.726644

    Final Occupation by Irrep:
             A1    A2    B1    B2
    DOCC [     5,    1,    1,    4 ]
    SOCC [     1,    0,    0,    0 ]

  @DF-UKS Final Energy:  -205.08024250736884

   => Energetics <=

    Nuclear Repulsion Energy =             64.7473834899380165
    One-Electron Energy =                -408.3996608094098519
    Two-Electron Energy =                 157.9357400700851031
    DFT Exchange-Correlation Energy =     -19.3637052579820796
    Empirical Dispersion Energy =           0.0000000000000000
    VV10 Nonlocal Energy =                  0.0000000000000000
    Total Energy =                       -205.0802425073688369

  UHF NO Occupations:
  HONO-2 :    5 A1 1.9994498
  HONO-1 :    4 B2 1.9990728
  HONO-0 :    6 A1 1.0000000
  LUNO+0 :    5 B2 0.0009272
  LUNO+1 :    7 A1 0.0005502
  LUNO+2 :    2 B1 0.0001284
  LUNO+3 :    8 A1 0.0000748

Computation Completed

Properties will be evaluated at   0.000000,   0.000000,   0.000000 [a0]

Properties computed using the SCF density matrix

  Nuclear Dipole Moment: [e a0]
     X:     0.0000      Y:     0.0000      Z:     0.0023

  Electronic Dipole Moment: [e a0]
     X:     0.0000      Y:     0.0000      Z:    -0.1329

  Dipole Moment: [e a0]
     X:     0.0000      Y:     0.0000      Z:    -0.1306     Total:     0.1306

  Dipole Moment: [D]
     X:     0.0000      Y:     0.0000      Z:    -0.3319     Total:     0.3319

*** tstop() called on n089 at Fri Nov  5 10:47:04 2021
Module time:
	user time   =      16.26 seconds =       0.27 minutes
	system time =       0.21 seconds =       0.00 minutes
	total time  =         17 seconds =       0.28 minutes
Total time:
	user time   =      16.26 seconds =       0.27 minutes
	system time =       0.21 seconds =       0.00 minutes
	total time  =         17 seconds =       0.28 minutes
Grab this energy -205.08024250736884
    Psi4 stopped on: Friday, 05 November 2021 10:47AM
    Psi4 wall time for execution: 0:00:16.50

*** Psi4 exiting successfully. Buy a developer a beer!
