                               Psi4 1.4a2.dev629

  ==> Input File <==

--------------------------------------------------------------------------
import os
memory 14 GB

molecule {
 O    0.0000000000   -2.0926543234    0.2635798017
 N    0.0000000000    0.0000000000   -0.6035830123
 O    0.0000000000    2.0926543234    0.2635798017
units bohr
0 2
}

basis {

assign 6-31g_2dfp_

[ 6-31g_2dfp_ ]

spherical

!----------------------------------------------------------------------
! Basis Set Exchange
! Version v0.8.13
! https://www.basissetexchange.org
!----------------------------------------------------------------------
!   Basis set: 6-31G(2df,p)
! Description: 6-31G(2df,p)
!        Role: orbital
!     Version: 0  (Data from the original Basis Set Exchange)
!----------------------------------------------------------------------

****
H     0
S    3   1.00
     18.7311370              0.03349460
      2.8253937              0.23472695
      0.6401217              0.81375733
S    1   1.00
      0.1612778              1.00000000
P    1   1.00
      1.5000000              1.0000000
P    1   1.00
      0.3750000              1.0000000
****
B     0
S    6   1.00
   2068.8823000              0.0018663
    310.6495700              0.0142515
     70.6830330              0.0695516
     19.8610800              0.2325729
      6.2993048              0.4670787
      2.1270270              0.3634314
SP   3   1.00
      4.7279710             -0.1303938              0.0745976
      1.1903377             -0.1307889              0.3078467
      0.3594117              1.1309444              0.7434568
SP   1   1.00
      0.1267512              1.0000000              1.0000000
D    1   1.00
      0.8020000              1.0000000
D    1   1.00
      0.2005000              1.0000000
F    1   1.00
      0.5000000              1.0000000
****
C     0
S    6   1.00
   3047.5249000              0.0018347
    457.3695100              0.0140373
    103.9486900              0.0688426
     29.2101550              0.2321844
      9.2866630              0.4679413
      3.1639270              0.3623120
SP   3   1.00
      7.8682724             -0.1193324              0.0689991
      1.8812885             -0.1608542              0.3164240
      0.5442493              1.1434564              0.7443083
SP   1   1.00
      0.1687144              1.0000000              1.0000000
D    1   1.00
      1.2520000              1.0000000
D    1   1.00
      0.3130000              1.0000000
F    1   1.00
      0.8000000              1.0000000
****
N     0
S    6   1.00
   4173.5110000              0.0018348
    627.4579000              0.0139950
    142.9021000              0.0685870
     40.2343300              0.2322410
     12.8202100              0.4690700
      4.3904370              0.3604550
SP   3   1.00
     11.6263580             -0.1149610              0.0675800
      2.7162800             -0.1691180              0.3239070
      0.7722180              1.1458520              0.7408950
SP   1   1.00
      0.2120313              1.0000000              1.0000000
D    1   1.00
      1.8260000              1.0000000
D    1   1.00
      0.4565000              1.0000000
F    1   1.00
      1.0000000              1.0000000
****
O     0
S    6   1.00
   5484.6717000              0.0018311
    825.2349500              0.0139501
    188.0469600              0.0684451
     52.9645000              0.2327143
     16.8975700              0.4701930
      5.7996353              0.3585209
SP   3   1.00
     15.5396160             -0.1107775              0.0708743
      3.5999336             -0.1480263              0.3397528
      1.0137618              1.1307670              0.7271586
SP   1   1.00
      0.2700058              1.0000000              1.0000000
D    1   1.00
      2.5840000              1.0000000
D    1   1.00
      0.6460000              1.0000000
F    1   1.00
      1.4000000              1.0000000
****
F     0
S    6   1.00
   7001.7130900              0.0018196169
   1051.3660900              0.0139160796
    239.2856900              0.0684053245
     67.3974453              0.233185760
     21.5199573              0.471267439
      7.40310130             0.356618546
SP   3   1.00
     20.8479528             -0.108506975            0.0716287243
      4.80830834            -0.146451658            0.3459121030
      1.34406986             1.128688580            0.7224699570
SP   1   1.00
      0.358151393            1.0000000              1.0000000
D    1   1.00
      3.5000000              1.0000000
D    1   1.00
      0.8750000              1.0000000
F    1   1.00
      1.8500000              1.0000000
****
Al     0
S    6   1.00
  13983.1000000              0.00194267
   2098.7500000              0.0148599
    477.7050000              0.0728494
    134.3600000              0.2468300
     42.8709000              0.4872580
     14.5189000              0.3234960
SP   6   1.00
    239.6680000             -0.00292619             0.00460285
     57.4419000             -0.0374080              0.0331990
     18.2859000             -0.1144870              0.1362820
      6.5991400              0.1156350              0.3304760
      2.4904900              0.6125950              0.4491460
      0.9445400              0.3937990              0.2657040
SP   3   1.00
      1.2779000             -0.2276060             -0.0175130
      0.3975900              0.00144583             0.2445330
      0.1600950              1.0927900              0.8049340
SP   1   1.00
      0.0556577              1.0000000              1.0000000
D    1   1.00
      0.6500000              1.0000000
D    1   1.00
      0.1625000              1.0000000
F    1   1.00
      0.2500000              1.0000000
****
Si     0
S    6   1.00
  16115.9000000              0.00195948
   2425.5800000              0.01492880
    553.8670000              0.07284780
    156.3400000              0.24613000
     50.0683000              0.48591400
     17.0178000              0.32500200
SP   6   1.00
    292.7180000             -0.00278094             0.00443826
     69.8731000             -0.03571460             0.03266790
     22.3363000             -0.11498500             0.13472100
      8.1503900              0.09356340             0.32867800
      3.1345800              0.60301700             0.44964000
      1.2254300              0.41895900             0.26137200
SP   3   1.00
      1.7273800             -0.24463000            -0.01779510
      0.5729220              0.00431572             0.25353900
      0.2221920              1.09818000             0.80066900
SP   1   1.00
      0.0778369              1.00000000             1.00000000
D    1   1.00
      0.9000000              1.0000000
D    1   1.00
      0.2250000              1.0000000
F    1   1.00
      0.3200000              1.0000000
****
P     0
S    6   1.00
  19413.3000000              0.0018516
   2909.4200000              0.0142062
    661.3640000              0.0699995
    185.7590000              0.2400790
     59.1943000              0.4847620
     20.0310000              0.3352000
SP   6   1.00
    339.4780000             -0.00278217             0.00456462
     81.0101000             -0.0360499              0.03369360
     25.8780000             -0.1166310              0.13975500
      9.4522100              0.0968328              0.33936200
      3.6656600              0.6144180              0.45092100
      1.4674600              0.4037980              0.23858600
SP   3   1.00
      2.1562300             -0.2529230             -0.01776530
      0.7489970              0.0328517              0.27405800
      0.2831450              1.0812500              0.78542100
SP   1   1.00
      0.0998317              1.0000000              1.00000000
D    1   1.00
      1.1000000              1.0000000
D    1   1.00
      0.2750000              1.0000000
F    1   1.00
      0.4500000              1.0000000
****
S     0
S    6   1.00
  21917.1000000              0.0018690
   3301.4900000              0.0142300
    754.1460000              0.0696960
    212.7110000              0.2384870
     67.9896000              0.4833070
     23.0515000              0.3380740
SP   6   1.00
    423.7350000             -0.0023767              0.0040610
    100.7100000             -0.0316930              0.0306810
     32.1599000             -0.1133170              0.1304520
     11.8079000              0.0560900              0.3272050
      4.6311000              0.5922550              0.4528510
      1.8702500              0.4550060              0.2560420
SP   3   1.00
      2.6158400             -0.2503740             -0.0145110
      0.9221670              0.0669570              0.3102630
      0.3412870              1.0545100              0.7544830
SP   1   1.00
      0.1171670              1.0000000              1.0000000
D    1   1.00
      1.3000000              1.0000000
D    1   1.00
      0.3250000              1.0000000
F    1   1.00
      0.5500000              1.0000000
****
Cl     0
S    6   1.00
  25180.1000000              0.0018330
   3780.3500000              0.0140340
    860.4740000              0.0690970
    242.1450000              0.2374520
     77.3349000              0.4830340
     26.2470000              0.3398560
SP   6   1.00
    491.7650000             -0.0022974              0.0039894
    116.9840000             -0.0307140              0.0303180
     37.4153000             -0.1125280              0.1298800
     13.7834000              0.0450160              0.3279510
      5.4521500              0.5893530              0.4535270
      2.2258800              0.4652060              0.2521540
SP   3   1.00
      3.1864900             -0.2518300             -0.0142990
      1.1442700              0.0615890              0.3235720
      0.4203770              1.0601800              0.7435070
SP   1   1.00
      0.1426570              1.0000000              1.0000000
D    1   1.00
      1.5000000              1.0000000
D    1   1.00
      0.3750000              1.0000000
F    1   1.00
      0.7000000              1.0000000
****
}

set {
reference uhf
freeze_core true
e_convergence 10
d_convergence 10
dft_spherical_points 1202
dft_radial_points 99
}

e = energy('b3lyp')

print_out('Grab this energy {0}'.format(e))
--------------------------------------------------------------------------

    Molecular point group: c2v

    Geometry (in Bohr), charge = 0, multiplicity = 2:

       Center              X                  Y                   Z               Mass
    ------------   -----------------  -----------------  -----------------  -----------------
         O            0.000000000000    -2.092654323400     0.264017798442    15.994914619570
         N            0.000000000000     0.000000000000    -0.603145015558    14.003074004430
         O           -0.000000000000     2.092654323400     0.264017798442    15.994914619570

  Charge       = 0
  Multiplicity = 2
  Basis Set: ANONYMOUSF2217453
    Blend: 6-31G_2DFP_
  Basis Set: (ANONYMOUSF2217453 AUX)
    Blend: DEF2-UNIVERSAL-JKFIT

    Orbital Energies [Eh]
    ---------------------

    Alpha Occupied:

       1B2   -19.257950     1A1   -19.257927     2A1   -14.577941
       3A1    -1.279178     2B2    -1.134763     4A1    -0.675973
       5A1    -0.574846     3B2    -0.571120     1B1    -0.564567
       4B2    -0.381271     1A2    -0.376194     6A1    -0.281953

    Alpha Virtual:

       2B1    -0.085350     7A1     0.210805     5B2     0.371494
       8A1     0.536139     6B2     0.550108     3B1     0.600607
       9A1     0.624090    10A1     0.754373     7B2     0.829090
       2A2     0.837265    11A1     0.846388     4B1     0.870703
       8B2     0.895758    12A1     0.926272     5B1     0.956240
       3A2     1.064663     9B2     1.349964     4A2     1.439597
      13A1     1.442073    10B2     1.510004     6B1     1.550120
      14A1     1.574541    11B2     1.635046    15A1     1.884934
       7B1     1.982076    12B2     2.115907     5A2     2.211073
      16A1     2.364557    13B2     2.535064    17A1     2.570552
       8B1     3.412103    18A1     3.427057     6A2     3.690312
      14B2     3.709568     9B1     3.912087    15B2     4.070337
      19A1     4.133008     7A2     4.426231    20A1     4.426659
      10B1     4.548574    16B2     4.571917    21A1     4.584366
      17B2     4.952885     8A2     4.952991    11B1     4.982924
      22A1     4.987488     9A2     5.303246    12B1     5.360746
      18B2     5.403850    23A1     5.412020    24A1     5.656118
      13B1     5.967676    19B2     6.034205    10A2     6.157490
      20B2     6.474670    25A1     6.548913    11A2     6.645625
      21B2     6.671518    14B1     6.674671    26A1     6.719416
      22B2     6.929942    15B1     6.955250    12A2     7.055952
      27A1     7.087624    23B2     7.558417    28A1     7.715381

    Beta Occupied:

       1B2   -19.248972     1A1   -19.248946     2A1   -14.567332
       3A1    -1.260478     2B2    -1.113724     4A1    -0.642980
       1B1    -0.553958     3B2    -0.547979     5A1    -0.528954
       1A2    -0.369151     4B2    -0.340803

    Beta Virtual:

       6A1    -0.135666     2B1    -0.068952     7A1     0.223827
       5B2     0.393549     8A1     0.552507     6B2     0.557718
       3B1     0.608622     9A1     0.653743    10A1     0.761173
       2A2     0.841239     7B2     0.842059    11A1     0.867291
       4B1     0.885308     8B2     0.918501    12A1     0.944645
       5B1     0.962826     3A2     1.068657     9B2     1.362258
       4A2     1.447118    13A1     1.462101    10B2     1.524461
       6B1     1.569999    14A1     1.586525    11B2     1.642333
      15A1     1.901636     7B1     1.985568    12B2     2.135531
       5A2     2.222576    16A1     2.379922    13B2     2.544930
      17A1     2.593917     8B1     3.438288    18A1     3.451872
       6A2     3.698019    14B2     3.719448     9B1     3.921156
      15B2     4.088155    19A1     4.147585     7A2     4.437726
      20A1     4.454773    10B1     4.589911    16B2     4.604897
      21A1     4.614269     8A2     4.966059    17B2     4.966280
      11B1     5.002462    22A1     5.006282     9A2     5.324784
      12B1     5.367302    18B2     5.421134    23A1     5.421678
      24A1     5.684729    13B1     5.982677    19B2     6.056550
      10A2     6.164102    20B2     6.494700    25A1     6.570671
      11A2     6.667842    21B2     6.697190    14B1     6.707274
      26A1     6.743360    15B1     6.960630    22B2     6.962762
      12A2     7.069463    27A1     7.118450    23B2     7.578734
      28A1     7.731376

    Final Occupation by Irrep:
             A1    A2    B1    B2
    DOCC [     5,    1,    1,    4 ]
    SOCC [     1,    0,    0,    0 ]

  @DF-UKS Final Energy:  -205.08028750300835

   => Energetics <=

    Nuclear Repulsion Energy =             64.7351376324156433
    One-Electron Energy =                -408.3654044306183550
    Two-Electron Energy =                 157.9149587866827460
    DFT Exchange-Correlation Energy =     -19.3649794914884161
    Empirical Dispersion Energy =           0.0000000000000000
    VV10 Nonlocal Energy =                  0.0000000000000000
    Total Energy =                       -205.0802875030083499

  UHF NO Occupations:
  HONO-2 :    5 A1 1.9994511
  HONO-1 :    4 B2 1.9991086
  HONO-0 :    6 A1 1.0000000
  LUNO+0 :    5 B2 0.0008914
  LUNO+1 :    7 A1 0.0005489
  LUNO+2 :    2 B1 0.0001343
  LUNO+3 :    8 A1 0.0000741

Computation Completed

Properties will be evaluated at   0.000000,   0.000000,   0.000000 [a0]

Properties computed using the SCF density matrix

  Nuclear Dipole Moment: [e a0]
     X:     0.0000      Y:     0.0000      Z:     0.0023

  Electronic Dipole Moment: [e a0]
     X:     0.0000      Y:     0.0000      Z:    -0.1233

  Dipole Moment: [e a0]
     X:     0.0000      Y:     0.0000      Z:    -0.1210     Total:     0.1210

  Dipole Moment: [D]
     X:     0.0000      Y:     0.0000      Z:    -0.3075     Total:     0.3075

*** tstop() called on n082 at Fri Nov  5 10:47:04 2021
Module time:
	user time   =      16.16 seconds =       0.27 minutes
	system time =       0.20 seconds =       0.00 minutes
	total time  =         17 seconds =       0.28 minutes
Total time:
	user time   =      16.16 seconds =       0.27 minutes
	system time =       0.20 seconds =       0.00 minutes
	total time  =         17 seconds =       0.28 minutes
Grab this energy -205.08028750300835
    Psi4 stopped on: Friday, 05 November 2021 10:47AM
    Psi4 wall time for execution: 0:00:16.39

*** Psi4 exiting successfully. Buy a developer a beer!
