                               Psi4 1.4a2.dev629

  ==> Input File <==

--------------------------------------------------------------------------
import os
memory 14 GB

molecule {
 O   -0.0000000000   -2.0853815888    0.2676140647
 N    0.0000000000   -0.0048301692   -0.6136928396
 O    0.0000000000    2.0902117580    0.2696553660
units bohr
0 2
}

basis {

assign 6-31g_2dfp_

[ 6-31g_2dfp_ ]

spherical

!----------------------------------------------------------------------
! Basis Set Exchange
! Version v0.8.13
! https://www.basissetexchange.org
!----------------------------------------------------------------------
!   Basis set: 6-31G(2df,p)
! Description: 6-31G(2df,p)
!        Role: orbital
!     Version: 0  (Data from the original Basis Set Exchange)
!----------------------------------------------------------------------

****
H     0
S    3   1.00
     18.7311370              0.03349460
      2.8253937              0.23472695
      0.6401217              0.81375733
S    1   1.00
      0.1612778              1.00000000
P    1   1.00
      1.5000000              1.0000000
P    1   1.00
      0.3750000              1.0000000
****
B     0
S    6   1.00
   2068.8823000              0.0018663
    310.6495700              0.0142515
     70.6830330              0.0695516
     19.8610800              0.2325729
      6.2993048              0.4670787
      2.1270270              0.3634314
SP   3   1.00
      4.7279710             -0.1303938              0.0745976
      1.1903377             -0.1307889              0.3078467
      0.3594117              1.1309444              0.7434568
SP   1   1.00
      0.1267512              1.0000000              1.0000000
D    1   1.00
      0.8020000              1.0000000
D    1   1.00
      0.2005000              1.0000000
F    1   1.00
      0.5000000              1.0000000
****
C     0
S    6   1.00
   3047.5249000              0.0018347
    457.3695100              0.0140373
    103.9486900              0.0688426
     29.2101550              0.2321844
      9.2866630              0.4679413
      3.1639270              0.3623120
SP   3   1.00
      7.8682724             -0.1193324              0.0689991
      1.8812885             -0.1608542              0.3164240
      0.5442493              1.1434564              0.7443083
SP   1   1.00
      0.1687144              1.0000000              1.0000000
D    1   1.00
      1.2520000              1.0000000
D    1   1.00
      0.3130000              1.0000000
F    1   1.00
      0.8000000              1.0000000
****
N     0
S    6   1.00
   4173.5110000              0.0018348
    627.4579000              0.0139950
    142.9021000              0.0685870
     40.2343300              0.2322410
     12.8202100              0.4690700
      4.3904370              0.3604550
SP   3   1.00
     11.6263580             -0.1149610              0.0675800
      2.7162800             -0.1691180              0.3239070
      0.7722180              1.1458520              0.7408950
SP   1   1.00
      0.2120313              1.0000000              1.0000000
D    1   1.00
      1.8260000              1.0000000
D    1   1.00
      0.4565000              1.0000000
F    1   1.00
      1.0000000              1.0000000
****
O     0
S    6   1.00
   5484.6717000              0.0018311
    825.2349500              0.0139501
    188.0469600              0.0684451
     52.9645000              0.2327143
     16.8975700              0.4701930
      5.7996353              0.3585209
SP   3   1.00
     15.5396160             -0.1107775              0.0708743
      3.5999336             -0.1480263              0.3397528
      1.0137618              1.1307670              0.7271586
SP   1   1.00
      0.2700058              1.0000000              1.0000000
D    1   1.00
      2.5840000              1.0000000
D    1   1.00
      0.6460000              1.0000000
F    1   1.00
      1.4000000              1.0000000
****
F     0
S    6   1.00
   7001.7130900              0.0018196169
   1051.3660900              0.0139160796
    239.2856900              0.0684053245
     67.3974453              0.233185760
     21.5199573              0.471267439
      7.40310130             0.356618546
SP   3   1.00
     20.8479528             -0.108506975            0.0716287243
      4.80830834            -0.146451658            0.3459121030
      1.34406986             1.128688580            0.7224699570
SP   1   1.00
      0.358151393            1.0000000              1.0000000
D    1   1.00
      3.5000000              1.0000000
D    1   1.00
      0.8750000              1.0000000
F    1   1.00
      1.8500000              1.0000000
****
Al     0
S    6   1.00
  13983.1000000              0.00194267
   2098.7500000              0.0148599
    477.7050000              0.0728494
    134.3600000              0.2468300
     42.8709000              0.4872580
     14.5189000              0.3234960
SP   6   1.00
    239.6680000             -0.00292619             0.00460285
     57.4419000             -0.0374080              0.0331990
     18.2859000             -0.1144870              0.1362820
      6.5991400              0.1156350              0.3304760
      2.4904900              0.6125950              0.4491460
      0.9445400              0.3937990              0.2657040
SP   3   1.00
      1.2779000             -0.2276060             -0.0175130
      0.3975900              0.00144583             0.2445330
      0.1600950              1.0927900              0.8049340
SP   1   1.00
      0.0556577              1.0000000              1.0000000
D    1   1.00
      0.6500000              1.0000000
D    1   1.00
      0.1625000              1.0000000
F    1   1.00
      0.2500000              1.0000000
****
Si     0
S    6   1.00
  16115.9000000              0.00195948
   2425.5800000              0.01492880
    553.8670000              0.07284780
    156.3400000              0.24613000
     50.0683000              0.48591400
     17.0178000              0.32500200
SP   6   1.00
    292.7180000             -0.00278094             0.00443826
     69.8731000             -0.03571460             0.03266790
     22.3363000             -0.11498500             0.13472100
      8.1503900              0.09356340             0.32867800
      3.1345800              0.60301700             0.44964000
      1.2254300              0.41895900             0.26137200
SP   3   1.00
      1.7273800             -0.24463000            -0.01779510
      0.5729220              0.00431572             0.25353900
      0.2221920              1.09818000             0.80066900
SP   1   1.00
      0.0778369              1.00000000             1.00000000
D    1   1.00
      0.9000000              1.0000000
D    1   1.00
      0.2250000              1.0000000
F    1   1.00
      0.3200000              1.0000000
****
P     0
S    6   1.00
  19413.3000000              0.0018516
   2909.4200000              0.0142062
    661.3640000              0.0699995
    185.7590000              0.2400790
     59.1943000              0.4847620
     20.0310000              0.3352000
SP   6   1.00
    339.4780000             -0.00278217             0.00456462
     81.0101000             -0.0360499              0.03369360
     25.8780000             -0.1166310              0.13975500
      9.4522100              0.0968328              0.33936200
      3.6656600              0.6144180              0.45092100
      1.4674600              0.4037980              0.23858600
SP   3   1.00
      2.1562300             -0.2529230             -0.01776530
      0.7489970              0.0328517              0.27405800
      0.2831450              1.0812500              0.78542100
SP   1   1.00
      0.0998317              1.0000000              1.00000000
D    1   1.00
      1.1000000              1.0000000
D    1   1.00
      0.2750000              1.0000000
F    1   1.00
      0.4500000              1.0000000
****
S     0
S    6   1.00
  21917.1000000              0.0018690
   3301.4900000              0.0142300
    754.1460000              0.0696960
    212.7110000              0.2384870
     67.9896000              0.4833070
     23.0515000              0.3380740
SP   6   1.00
    423.7350000             -0.0023767              0.0040610
    100.7100000             -0.0316930              0.0306810
     32.1599000             -0.1133170              0.1304520
     11.8079000              0.0560900              0.3272050
      4.6311000              0.5922550              0.4528510
      1.8702500              0.4550060              0.2560420
SP   3   1.00
      2.6158400             -0.2503740             -0.0145110
      0.9221670              0.0669570              0.3102630
      0.3412870              1.0545100              0.7544830
SP   1   1.00
      0.1171670              1.0000000              1.0000000
D    1   1.00
      1.3000000              1.0000000
D    1   1.00
      0.3250000              1.0000000
F    1   1.00
      0.5500000              1.0000000
****
Cl     0
S    6   1.00
  25180.1000000              0.0018330
   3780.3500000              0.0140340
    860.4740000              0.0690970
    242.1450000              0.2374520
     77.3349000              0.4830340
     26.2470000              0.3398560
SP   6   1.00
    491.7650000             -0.0022974              0.0039894
    116.9840000             -0.0307140              0.0303180
     37.4153000             -0.1125280              0.1298800
     13.7834000              0.0450160              0.3279510
      5.4521500              0.5893530              0.4535270
      2.2258800              0.4652060              0.2521540
SP   3   1.00
      3.1864900             -0.2518300             -0.0142990
      1.1442700              0.0615890              0.3235720
      0.4203770              1.0601800              0.7435070
SP   1   1.00
      0.1426570              1.0000000              1.0000000
D    1   1.00
      1.5000000              1.0000000
D    1   1.00
      0.3750000              1.0000000
F    1   1.00
      0.7000000              1.0000000
****
}

set {
reference uhf
freeze_core true
e_convergence 10
d_convergence 10
dft_spherical_points 1202
dft_radial_points 99
}

e = energy('b3lyp')

print_out('Grab this energy {0}'.format(e))
--------------------------------------------------------------------------

    Molecular point group: cs

    Geometry (in Bohr), charge = 0, multiplicity = 2:

       Center              X                  Y                   Z               Mass
    ------------   -----------------  -----------------  -----------------  -----------------
         O            2.085590771663    -0.267614229446     0.000000000000    15.994914619570
         N            0.005039352063     0.613692674854     0.000000000000    14.003074004430
         O           -2.090002575137    -0.269655530746     0.000000000000    15.994914619570

  Charge       = 0
  Multiplicity = 2
  Basis Set: ANONYMOUS573EC944
    Blend: 6-31G_2DFP_
  Basis Set: (ANONYMOUS573EC944 AUX)
    Blend: DEF2-UNIVERSAL-JKFIT

    Orbital Energies [Eh]
    ---------------------

    Alpha Occupied:

       1Ap   -19.258669     2Ap   -19.256738     3Ap   -14.578123
       4Ap    -1.279274     5Ap    -1.133402     6Ap    -0.676345
       7Ap    -0.574518     8Ap    -0.570927     1App   -0.564304
       9Ap    -0.380390     2App   -0.375804    10Ap    -0.284183

    Alpha Virtual:

       3App   -0.085868    11Ap     0.213866    12Ap     0.367738
      13Ap     0.535617    14Ap     0.549223     4App    0.600549
      15Ap     0.624706    16Ap     0.755219    17Ap     0.827802
       5App    0.838507    18Ap     0.844540     6App    0.871514
      19Ap     0.898756    20Ap     0.928207     7App    0.956062
       8App    1.062805    21Ap     1.350953    22Ap     1.438063
       9App    1.441763    23Ap     1.507441    10App    1.547732
      24Ap     1.575702    25Ap     1.641151    26Ap     1.883336
      11App    1.984131    27Ap     2.110684    12App    2.204914
      28Ap     2.366962    29Ap     2.531351    30Ap     2.561464
      13App    3.412769    31Ap     3.428946    14App    3.694863
      32Ap     3.713780    15App    3.907846    33Ap     4.065432
      34Ap     4.132065    35Ap     4.427596    16App    4.432768
      17App    4.549609    36Ap     4.574363    37Ap     4.585918
      38Ap     4.953156    18App    4.953268    19App    4.982821
      39Ap     4.987473    20App    5.292741    21App    5.368470
      40Ap     5.396328    41Ap     5.421707    42Ap     5.652181
      22App    5.963830    43Ap     6.046569    23App    6.158475
      44Ap     6.483310    45Ap     6.533632    24App    6.646305
      46Ap     6.672928    25App    6.674596    47Ap     6.717479
      48Ap     6.930442    26App    6.955447    27App    7.053390
      49Ap     7.090510    50Ap     7.548091    51Ap     7.712745

    Beta Occupied:

       1Ap   -19.249722     2Ap   -19.247689     3Ap   -14.567602
       4Ap    -1.260632     5Ap    -1.112239     6Ap    -0.643166
       1App   -0.553747     7Ap    -0.547628     8Ap    -0.528890
       2App   -0.368708     9Ap    -0.339899

    Beta Virtual:

      10Ap    -0.138169     3App   -0.069513    11Ap     0.226915
      12Ap     0.390068    13Ap     0.552002    14Ap     0.556876
       4App    0.608508    15Ap     0.653903    16Ap     0.762103
      17Ap     0.840721     5App    0.842501    18Ap     0.865494
       6App    0.885928    19Ap     0.921564    20Ap     0.946517
       7App    0.962753     8App    1.066814    21Ap     1.363312
       9App    1.449317    22Ap     1.458501    23Ap     1.521726
      10App    1.567637    24Ap     1.587316    25Ap     1.648749
      26Ap     1.900040    11App    1.987710    27Ap     2.130355
      12App    2.216423    28Ap     2.382311    29Ap     2.541346
      30Ap     2.584759    13App    3.438702    31Ap     3.453458
      14App    3.702491    32Ap     3.723617    15App    3.916875
      33Ap     4.083306    34Ap     4.146537    16App    4.444398
      35Ap     4.455924    17App    4.590584    36Ap     4.607048
      37Ap     4.615381    18App    4.966330    38Ap     4.966572
      19App    5.002405    39Ap     5.006283    20App    5.314312
      21App    5.375057    40Ap     5.413426    41Ap     5.431894
      42Ap     5.680676    22App    5.978981    43Ap     6.069038
      23App    6.165146    44Ap     6.503482    45Ap     6.554977
      24App    6.668585    46Ap     6.699059    25App    6.707296
      47Ap     6.741850    26App    6.960819    48Ap     6.963236
      27App    7.066979    49Ap     7.121391    50Ap     7.568219
      51Ap     7.728993

    Final Occupation by Irrep:
             Ap   App
    DOCC [     9,    2 ]
    SOCC [     1,    0 ]

  @DF-UKS Final Energy:  -205.08027091085663

   => Energetics <=

    Nuclear Repulsion Energy =             64.7412216252517396
    One-Electron Energy =                -408.3823073155090810
    Two-Electron Energy =                 157.9251770155156294
    DFT Exchange-Correlation Energy =     -19.3643622361149177
    Empirical Dispersion Energy =           0.0000000000000000
    VV10 Nonlocal Energy =                  0.0000000000000000
    Total Energy =                       -205.0802709108566262

  UHF NO Occupations:
  HONO-2 :    8 Ap 1.9994510
  HONO-1 :    9 Ap 1.9990895
  HONO-0 :   10 Ap 1.0000000
  LUNO+0 :   11 Ap 0.0009105
  LUNO+1 :   12 Ap 0.0005490
  LUNO+2 :    3App 0.0001313
  LUNO+3 :   13 Ap 0.0000744

Computation Completed

Properties will be evaluated at   0.000000,   0.000000,   0.000000 [a0]

Properties computed using the SCF density matrix

  Nuclear Dipole Moment: [e a0]
     X:    -0.0000      Y:    -0.0023      Z:     0.0000

  Electronic Dipole Moment: [e a0]
     X:     0.0136      Y:     0.1281      Z:     0.0000

  Dipole Moment: [e a0]
     X:     0.0135      Y:     0.1258      Z:     0.0000     Total:     0.1265

  Dipole Moment: [D]
     X:     0.0344      Y:     0.3197      Z:     0.0000     Total:     0.3215

*** tstop() called on n049 at Fri Nov  5 10:47:10 2021
Module time:
	user time   =      22.01 seconds =       0.37 minutes
	system time =       0.26 seconds =       0.00 minutes
	total time  =         23 seconds =       0.38 minutes
Total time:
	user time   =      22.01 seconds =       0.37 minutes
	system time =       0.26 seconds =       0.00 minutes
	total time  =         23 seconds =       0.38 minutes
Grab this energy -205.08027091085663
    Psi4 stopped on: Friday, 05 November 2021 10:47AM
    Psi4 wall time for execution: 0:00:22.30

*** Psi4 exiting successfully. Buy a developer a beer!
