                               Psi4 1.4a2.dev629

  ==> Input File <==

--------------------------------------------------------------------------
import os
memory 14 GB

molecule {
 O    0.0000000000   -2.0852455503    0.2658096493
 N    0.0000000000    0.0000000000   -0.6080427075
 O    0.0000000000    2.0852455503    0.2658096493
units bohr
0 2
}

basis {

assign 6-31g_2dfp_

[ 6-31g_2dfp_ ]

spherical

!----------------------------------------------------------------------
! Basis Set Exchange
! Version v0.8.13
! https://www.basissetexchange.org
!----------------------------------------------------------------------
!   Basis set: 6-31G(2df,p)
! Description: 6-31G(2df,p)
!        Role: orbital
!     Version: 0  (Data from the original Basis Set Exchange)
!----------------------------------------------------------------------

****
H     0
S    3   1.00
     18.7311370              0.03349460
      2.8253937              0.23472695
      0.6401217              0.81375733
S    1   1.00
      0.1612778              1.00000000
P    1   1.00
      1.5000000              1.0000000
P    1   1.00
      0.3750000              1.0000000
****
B     0
S    6   1.00
   2068.8823000              0.0018663
    310.6495700              0.0142515
     70.6830330              0.0695516
     19.8610800              0.2325729
      6.2993048              0.4670787
      2.1270270              0.3634314
SP   3   1.00
      4.7279710             -0.1303938              0.0745976
      1.1903377             -0.1307889              0.3078467
      0.3594117              1.1309444              0.7434568
SP   1   1.00
      0.1267512              1.0000000              1.0000000
D    1   1.00
      0.8020000              1.0000000
D    1   1.00
      0.2005000              1.0000000
F    1   1.00
      0.5000000              1.0000000
****
C     0
S    6   1.00
   3047.5249000              0.0018347
    457.3695100              0.0140373
    103.9486900              0.0688426
     29.2101550              0.2321844
      9.2866630              0.4679413
      3.1639270              0.3623120
SP   3   1.00
      7.8682724             -0.1193324              0.0689991
      1.8812885             -0.1608542              0.3164240
      0.5442493              1.1434564              0.7443083
SP   1   1.00
      0.1687144              1.0000000              1.0000000
D    1   1.00
      1.2520000              1.0000000
D    1   1.00
      0.3130000              1.0000000
F    1   1.00
      0.8000000              1.0000000
****
N     0
S    6   1.00
   4173.5110000              0.0018348
    627.4579000              0.0139950
    142.9021000              0.0685870
     40.2343300              0.2322410
     12.8202100              0.4690700
      4.3904370              0.3604550
SP   3   1.00
     11.6263580             -0.1149610              0.0675800
      2.7162800             -0.1691180              0.3239070
      0.7722180              1.1458520              0.7408950
SP   1   1.00
      0.2120313              1.0000000              1.0000000
D    1   1.00
      1.8260000              1.0000000
D    1   1.00
      0.4565000              1.0000000
F    1   1.00
      1.0000000              1.0000000
****
O     0
S    6   1.00
   5484.6717000              0.0018311
    825.2349500              0.0139501
    188.0469600              0.0684451
     52.9645000              0.2327143
     16.8975700              0.4701930
      5.7996353              0.3585209
SP   3   1.00
     15.5396160             -0.1107775              0.0708743
      3.5999336             -0.1480263              0.3397528
      1.0137618              1.1307670              0.7271586
SP   1   1.00
      0.2700058              1.0000000              1.0000000
D    1   1.00
      2.5840000              1.0000000
D    1   1.00
      0.6460000              1.0000000
F    1   1.00
      1.4000000              1.0000000
****
F     0
S    6   1.00
   7001.7130900              0.0018196169
   1051.3660900              0.0139160796
    239.2856900              0.0684053245
     67.3974453              0.233185760
     21.5199573              0.471267439
      7.40310130             0.356618546
SP   3   1.00
     20.8479528             -0.108506975            0.0716287243
      4.80830834            -0.146451658            0.3459121030
      1.34406986             1.128688580            0.7224699570
SP   1   1.00
      0.358151393            1.0000000              1.0000000
D    1   1.00
      3.5000000              1.0000000
D    1   1.00
      0.8750000              1.0000000
F    1   1.00
      1.8500000              1.0000000
****
Al     0
S    6   1.00
  13983.1000000              0.00194267
   2098.7500000              0.0148599
    477.7050000              0.0728494
    134.3600000              0.2468300
     42.8709000              0.4872580
     14.5189000              0.3234960
SP   6   1.00
    239.6680000             -0.00292619             0.00460285
     57.4419000             -0.0374080              0.0331990
     18.2859000             -0.1144870              0.1362820
      6.5991400              0.1156350              0.3304760
      2.4904900              0.6125950              0.4491460
      0.9445400              0.3937990              0.2657040
SP   3   1.00
      1.2779000             -0.2276060             -0.0175130
      0.3975900              0.00144583             0.2445330
      0.1600950              1.0927900              0.8049340
SP   1   1.00
      0.0556577              1.0000000              1.0000000
D    1   1.00
      0.6500000              1.0000000
D    1   1.00
      0.1625000              1.0000000
F    1   1.00
      0.2500000              1.0000000
****
Si     0
S    6   1.00
  16115.9000000              0.00195948
   2425.5800000              0.01492880
    553.8670000              0.07284780
    156.3400000              0.24613000
     50.0683000              0.48591400
     17.0178000              0.32500200
SP   6   1.00
    292.7180000             -0.00278094             0.00443826
     69.8731000             -0.03571460             0.03266790
     22.3363000             -0.11498500             0.13472100
      8.1503900              0.09356340             0.32867800
      3.1345800              0.60301700             0.44964000
      1.2254300              0.41895900             0.26137200
SP   3   1.00
      1.7273800             -0.24463000            -0.01779510
      0.5729220              0.00431572             0.25353900
      0.2221920              1.09818000             0.80066900
SP   1   1.00
      0.0778369              1.00000000             1.00000000
D    1   1.00
      0.9000000              1.0000000
D    1   1.00
      0.2250000              1.0000000
F    1   1.00
      0.3200000              1.0000000
****
P     0
S    6   1.00
  19413.3000000              0.0018516
   2909.4200000              0.0142062
    661.3640000              0.0699995
    185.7590000              0.2400790
     59.1943000              0.4847620
     20.0310000              0.3352000
SP   6   1.00
    339.4780000             -0.00278217             0.00456462
     81.0101000             -0.0360499              0.03369360
     25.8780000             -0.1166310              0.13975500
      9.4522100              0.0968328              0.33936200
      3.6656600              0.6144180              0.45092100
      1.4674600              0.4037980              0.23858600
SP   3   1.00
      2.1562300             -0.2529230             -0.01776530
      0.7489970              0.0328517              0.27405800
      0.2831450              1.0812500              0.78542100
SP   1   1.00
      0.0998317              1.0000000              1.00000000
D    1   1.00
      1.1000000              1.0000000
D    1   1.00
      0.2750000              1.0000000
F    1   1.00
      0.4500000              1.0000000
****
S     0
S    6   1.00
  21917.1000000              0.0018690
   3301.4900000              0.0142300
    754.1460000              0.0696960
    212.7110000              0.2384870
     67.9896000              0.4833070
     23.0515000              0.3380740
SP   6   1.00
    423.7350000             -0.0023767              0.0040610
    100.7100000             -0.0316930              0.0306810
     32.1599000             -0.1133170              0.1304520
     11.8079000              0.0560900              0.3272050
      4.6311000              0.5922550              0.4528510
      1.8702500              0.4550060              0.2560420
SP   3   1.00
      2.6158400             -0.2503740             -0.0145110
      0.9221670              0.0669570              0.3102630
      0.3412870              1.0545100              0.7544830
SP   1   1.00
      0.1171670              1.0000000              1.0000000
D    1   1.00
      1.3000000              1.0000000
D    1   1.00
      0.3250000              1.0000000
F    1   1.00
      0.5500000              1.0000000
****
Cl     0
S    6   1.00
  25180.1000000              0.0018330
   3780.3500000              0.0140340
    860.4740000              0.0690970
    242.1450000              0.2374520
     77.3349000              0.4830340
     26.2470000              0.3398560
SP   6   1.00
    491.7650000             -0.0022974              0.0039894
    116.9840000             -0.0307140              0.0303180
     37.4153000             -0.1125280              0.1298800
     13.7834000              0.0450160              0.3279510
      5.4521500              0.5893530              0.4535270
      2.2258800              0.4652060              0.2521540
SP   3   1.00
      3.1864900             -0.2518300             -0.0142990
      1.1442700              0.0615890              0.3235720
      0.4203770              1.0601800              0.7435070
SP   1   1.00
      0.1426570              1.0000000              1.0000000
D    1   1.00
      1.5000000              1.0000000
D    1   1.00
      0.3750000              1.0000000
F    1   1.00
      0.7000000              1.0000000
****
}

set {
reference uhf
freeze_core true
e_convergence 10
d_convergence 10
dft_spherical_points 1202
dft_radial_points 99
}

e = energy('b3lyp')

print_out('Grab this energy {0}'.format(e))
--------------------------------------------------------------------------

    Molecular point group: c2v

    Geometry (in Bohr), charge = 0, multiplicity = 2:

       Center              X                  Y                   Z               Mass
    ------------   -----------------  -----------------  -----------------  -----------------
         O            0.000000000000    -2.085245550300     0.266054507505    15.994914619570
         N            0.000000000000     0.000000000000    -0.607797849295    14.003074004430
         O           -0.000000000000     2.085245550300     0.266054507505    15.994914619570

  Charge       = 0
  Multiplicity = 2
  Basis Set: ANONYMOUS2BC17B21
    Blend: 6-31G_2DFP_
  Basis Set: (ANONYMOUS2BC17B21 AUX)
    Blend: DEF2-UNIVERSAL-JKFIT

    Orbital Energies [Eh]
    ---------------------

    Alpha Occupied:

       1B2   -19.257288     1A1   -19.257265     2A1   -14.577751
       3A1    -1.281261     2B2    -1.135509     4A1    -0.675519
       5A1    -0.575685     3B2    -0.571155     1B1    -0.565630
       4B2    -0.380734     1A2    -0.376075     6A1    -0.282341

    Alpha Virtual:

       2B1    -0.084221     7A1     0.216094     5B2     0.371597
       8A1     0.535420     6B2     0.551251     3B1     0.599976
       9A1     0.624029    10A1     0.754855     7B2     0.828386
       2A2     0.837162    11A1     0.845158     4B1     0.871153
       8B2     0.897206    12A1     0.927174     5B1     0.956088
       3A2     1.065452     9B2     1.351374     4A2     1.441595
      13A1     1.442110    10B2     1.510835     6B1     1.550182
      14A1     1.576498    11B2     1.641179    15A1     1.885738
       7B1     1.985855    12B2     2.115017     5A2     2.209578
      16A1     2.368093    13B2     2.538464    17A1     2.569418
       8B1     3.412519    18A1     3.428238     6A2     3.695846
      14B2     3.715876     9B1     3.911744    15B2     4.071783
      19A1     4.136403     7A2     4.421665    20A1     4.426588
      10B1     4.546033    16B2     4.571885    21A1     4.585377
      17B2     4.952955     8A2     4.953024    11B1     4.983613
      22A1     4.988279     9A2     5.302048    12B1     5.370822
      18B2     5.405364    23A1     5.423143    24A1     5.659870
      13B1     5.964489    19B2     6.039516    10A2     6.167753
      20B2     6.486614    25A1     6.547889    11A2     6.646327
      21B2     6.672837    14B1     6.674948    26A1     6.720725
      22B2     6.932826    15B1     6.958194    12A2     7.054521
      27A1     7.088222    23B2     7.557605    28A1     7.718465

    Beta Occupied:

       1B2   -19.248314     1A1   -19.248288     2A1   -14.567172
       3A1    -1.262621     2B2    -1.114451     4A1    -0.642389
       1B1    -0.555037     3B2    -0.548014     5A1    -0.529963
       1A2    -0.369018     4B2    -0.340281

    Beta Virtual:

       6A1    -0.136131     2B1    -0.067816     7A1     0.229077
       5B2     0.393495     8A1     0.551942     6B2     0.558993
       3B1     0.607984     9A1     0.653538    10A1     0.761688
       2A2     0.841132     7B2     0.841241    11A1     0.866050
       4B1     0.885663     8B2     0.920071    12A1     0.945502
       5B1     0.962739     3A2     1.069469     9B2     1.363670
       4A2     1.449130    13A1     1.462424    10B2     1.525175
       6B1     1.570092    14A1     1.588268    11B2     1.648726
      15A1     1.902453     7B1     1.989415    12B2     2.134628
       5A2     2.221073    16A1     2.383482    13B2     2.548277
      17A1     2.592931     8B1     3.438567    18A1     3.452881
       6A2     3.703511    14B2     3.725744     9B1     3.920803
      15B2     4.089665    19A1     4.150916     7A2     4.433212
      20A1     4.455337    10B1     4.587252    16B2     4.604831
      21A1     4.614600     8A2     4.966078    17B2     4.966351
      11B1     5.003166    22A1     5.007070     9A2     5.323609
      12B1     5.377398    18B2     5.422662    23A1     5.432970
      24A1     5.688383    13B1     5.979551    19B2     6.061844
      10A2     6.174387    20B2     6.506624    25A1     6.569626
      11A2     6.668528    21B2     6.698935    14B1     6.707569
      26A1     6.744678    15B1     6.963583    22B2     6.965388
      12A2     7.068041    27A1     7.119045    23B2     7.577812
      28A1     7.734501

    Final Occupation by Irrep:
             A1    A2    B1    B2
    DOCC [     5,    1,    1,    4 ]
    SOCC [     1,    0,    0,    0 ]

  @DF-UKS Final Energy:  -205.08034716758047

   => Energetics <=

    Nuclear Repulsion Energy =             64.8827491643080236
    One-Electron Energy =                -408.6535737097177616
    Two-Electron Energy =                 158.0589852870621144
    DFT Exchange-Correlation Energy =     -19.3685079092328785
    Empirical Dispersion Energy =           0.0000000000000000
    VV10 Nonlocal Energy =                  0.0000000000000000
    Total Energy =                       -205.0803471675804701

  UHF NO Occupations:
  HONO-2 :    5 A1 1.9994551
  HONO-1 :    4 B2 1.9991118
  HONO-0 :    6 A1 1.0000000
  LUNO+0 :    5 B2 0.0008882
  LUNO+1 :    7 A1 0.0005449
  LUNO+2 :    2 B1 0.0001326
  LUNO+3 :    8 A1 0.0000740

Computation Completed

Properties will be evaluated at   0.000000,   0.000000,   0.000000 [a0]

Properties computed using the SCF density matrix

  Nuclear Dipole Moment: [e a0]
     X:     0.0000      Y:     0.0000      Z:     0.0023

  Electronic Dipole Moment: [e a0]
     X:     0.0000      Y:     0.0000      Z:    -0.1266

  Dipole Moment: [e a0]
     X:     0.0000      Y:     0.0000      Z:    -0.1243     Total:     0.1243

  Dipole Moment: [D]
     X:     0.0000      Y:     0.0000      Z:    -0.3159     Total:     0.3159

*** tstop() called on n070 at Fri Nov  5 10:47:10 2021
Module time:
	user time   =      19.52 seconds =       0.33 minutes
	system time =       0.28 seconds =       0.00 minutes
	total time  =         20 seconds =       0.33 minutes
Total time:
	user time   =      19.52 seconds =       0.33 minutes
	system time =       0.28 seconds =       0.00 minutes
	total time  =         20 seconds =       0.33 minutes
Grab this energy -205.08034716758047
    Psi4 stopped on: Friday, 05 November 2021 10:47AM
    Psi4 wall time for execution: 0:00:19.87

*** Psi4 exiting successfully. Buy a developer a beer!
