                               Psi4 1.4a2.dev629

  ==> Input File <==

--------------------------------------------------------------------------
import os
memory 14 GB

molecule {
 O   -0.0000000000   -2.0952327380    0.2664073178
 N    0.0000000000   -0.0000000000   -0.6092380446
 O    0.0000000000    2.0952327380    0.2664073178
units bohr
0 2
}

basis {

assign 6-31g_2dfp_

[ 6-31g_2dfp_ ]

spherical

!----------------------------------------------------------------------
! Basis Set Exchange
! Version v0.8.13
! https://www.basissetexchange.org
!----------------------------------------------------------------------
!   Basis set: 6-31G(2df,p)
! Description: 6-31G(2df,p)
!        Role: orbital
!     Version: 0  (Data from the original Basis Set Exchange)
!----------------------------------------------------------------------

****
H     0
S    3   1.00
     18.7311370              0.03349460
      2.8253937              0.23472695
      0.6401217              0.81375733
S    1   1.00
      0.1612778              1.00000000
P    1   1.00
      1.5000000              1.0000000
P    1   1.00
      0.3750000              1.0000000
****
B     0
S    6   1.00
   2068.8823000              0.0018663
    310.6495700              0.0142515
     70.6830330              0.0695516
     19.8610800              0.2325729
      6.2993048              0.4670787
      2.1270270              0.3634314
SP   3   1.00
      4.7279710             -0.1303938              0.0745976
      1.1903377             -0.1307889              0.3078467
      0.3594117              1.1309444              0.7434568
SP   1   1.00
      0.1267512              1.0000000              1.0000000
D    1   1.00
      0.8020000              1.0000000
D    1   1.00
      0.2005000              1.0000000
F    1   1.00
      0.5000000              1.0000000
****
C     0
S    6   1.00
   3047.5249000              0.0018347
    457.3695100              0.0140373
    103.9486900              0.0688426
     29.2101550              0.2321844
      9.2866630              0.4679413
      3.1639270              0.3623120
SP   3   1.00
      7.8682724             -0.1193324              0.0689991
      1.8812885             -0.1608542              0.3164240
      0.5442493              1.1434564              0.7443083
SP   1   1.00
      0.1687144              1.0000000              1.0000000
D    1   1.00
      1.2520000              1.0000000
D    1   1.00
      0.3130000              1.0000000
F    1   1.00
      0.8000000              1.0000000
****
N     0
S    6   1.00
   4173.5110000              0.0018348
    627.4579000              0.0139950
    142.9021000              0.0685870
     40.2343300              0.2322410
     12.8202100              0.4690700
      4.3904370              0.3604550
SP   3   1.00
     11.6263580             -0.1149610              0.0675800
      2.7162800             -0.1691180              0.3239070
      0.7722180              1.1458520              0.7408950
SP   1   1.00
      0.2120313              1.0000000              1.0000000
D    1   1.00
      1.8260000              1.0000000
D    1   1.00
      0.4565000              1.0000000
F    1   1.00
      1.0000000              1.0000000
****
O     0
S    6   1.00
   5484.6717000              0.0018311
    825.2349500              0.0139501
    188.0469600              0.0684451
     52.9645000              0.2327143
     16.8975700              0.4701930
      5.7996353              0.3585209
SP   3   1.00
     15.5396160             -0.1107775              0.0708743
      3.5999336             -0.1480263              0.3397528
      1.0137618              1.1307670              0.7271586
SP   1   1.00
      0.2700058              1.0000000              1.0000000
D    1   1.00
      2.5840000              1.0000000
D    1   1.00
      0.6460000              1.0000000
F    1   1.00
      1.4000000              1.0000000
****
F     0
S    6   1.00
   7001.7130900              0.0018196169
   1051.3660900              0.0139160796
    239.2856900              0.0684053245
     67.3974453              0.233185760
     21.5199573              0.471267439
      7.40310130             0.356618546
SP   3   1.00
     20.8479528             -0.108506975            0.0716287243
      4.80830834            -0.146451658            0.3459121030
      1.34406986             1.128688580            0.7224699570
SP   1   1.00
      0.358151393            1.0000000              1.0000000
D    1   1.00
      3.5000000              1.0000000
D    1   1.00
      0.8750000              1.0000000
F    1   1.00
      1.8500000              1.0000000
****
Al     0
S    6   1.00
  13983.1000000              0.00194267
   2098.7500000              0.0148599
    477.7050000              0.0728494
    134.3600000              0.2468300
     42.8709000              0.4872580
     14.5189000              0.3234960
SP   6   1.00
    239.6680000             -0.00292619             0.00460285
     57.4419000             -0.0374080              0.0331990
     18.2859000             -0.1144870              0.1362820
      6.5991400              0.1156350              0.3304760
      2.4904900              0.6125950              0.4491460
      0.9445400              0.3937990              0.2657040
SP   3   1.00
      1.2779000             -0.2276060             -0.0175130
      0.3975900              0.00144583             0.2445330
      0.1600950              1.0927900              0.8049340
SP   1   1.00
      0.0556577              1.0000000              1.0000000
D    1   1.00
      0.6500000              1.0000000
D    1   1.00
      0.1625000              1.0000000
F    1   1.00
      0.2500000              1.0000000
****
Si     0
S    6   1.00
  16115.9000000              0.00195948
   2425.5800000              0.01492880
    553.8670000              0.07284780
    156.3400000              0.24613000
     50.0683000              0.48591400
     17.0178000              0.32500200
SP   6   1.00
    292.7180000             -0.00278094             0.00443826
     69.8731000             -0.03571460             0.03266790
     22.3363000             -0.11498500             0.13472100
      8.1503900              0.09356340             0.32867800
      3.1345800              0.60301700             0.44964000
      1.2254300              0.41895900             0.26137200
SP   3   1.00
      1.7273800             -0.24463000            -0.01779510
      0.5729220              0.00431572             0.25353900
      0.2221920              1.09818000             0.80066900
SP   1   1.00
      0.0778369              1.00000000             1.00000000
D    1   1.00
      0.9000000              1.0000000
D    1   1.00
      0.2250000              1.0000000
F    1   1.00
      0.3200000              1.0000000
****
P     0
S    6   1.00
  19413.3000000              0.0018516
   2909.4200000              0.0142062
    661.3640000              0.0699995
    185.7590000              0.2400790
     59.1943000              0.4847620
     20.0310000              0.3352000
SP   6   1.00
    339.4780000             -0.00278217             0.00456462
     81.0101000             -0.0360499              0.03369360
     25.8780000             -0.1166310              0.13975500
      9.4522100              0.0968328              0.33936200
      3.6656600              0.6144180              0.45092100
      1.4674600              0.4037980              0.23858600
SP   3   1.00
      2.1562300             -0.2529230             -0.01776530
      0.7489970              0.0328517              0.27405800
      0.2831450              1.0812500              0.78542100
SP   1   1.00
      0.0998317              1.0000000              1.00000000
D    1   1.00
      1.1000000              1.0000000
D    1   1.00
      0.2750000              1.0000000
F    1   1.00
      0.4500000              1.0000000
****
S     0
S    6   1.00
  21917.1000000              0.0018690
   3301.4900000              0.0142300
    754.1460000              0.0696960
    212.7110000              0.2384870
     67.9896000              0.4833070
     23.0515000              0.3380740
SP   6   1.00
    423.7350000             -0.0023767              0.0040610
    100.7100000             -0.0316930              0.0306810
     32.1599000             -0.1133170              0.1304520
     11.8079000              0.0560900              0.3272050
      4.6311000              0.5922550              0.4528510
      1.8702500              0.4550060              0.2560420
SP   3   1.00
      2.6158400             -0.2503740             -0.0145110
      0.9221670              0.0669570              0.3102630
      0.3412870              1.0545100              0.7544830
SP   1   1.00
      0.1171670              1.0000000              1.0000000
D    1   1.00
      1.3000000              1.0000000
D    1   1.00
      0.3250000              1.0000000
F    1   1.00
      0.5500000              1.0000000
****
Cl     0
S    6   1.00
  25180.1000000              0.0018330
   3780.3500000              0.0140340
    860.4740000              0.0690970
    242.1450000              0.2374520
     77.3349000              0.4830340
     26.2470000              0.3398560
SP   6   1.00
    491.7650000             -0.0022974              0.0039894
    116.9840000             -0.0307140              0.0303180
     37.4153000             -0.1125280              0.1298800
     13.7834000              0.0450160              0.3279510
      5.4521500              0.5893530              0.4535270
      2.2258800              0.4652060              0.2521540
SP   3   1.00
      3.1864900             -0.2518300             -0.0142990
      1.1442700              0.0615890              0.3235720
      0.4203770              1.0601800              0.7435070
SP   1   1.00
      0.1426570              1.0000000              1.0000000
D    1   1.00
      1.5000000              1.0000000
D    1   1.00
      0.3750000              1.0000000
F    1   1.00
      0.7000000              1.0000000
****
}

set {
reference uhf
freeze_core true
e_convergence 10
d_convergence 10
dft_spherical_points 1202
dft_radial_points 99
}

e = energy('b3lyp')

print_out('Grab this energy {0}'.format(e))
--------------------------------------------------------------------------

    Molecular point group: c2v

    Geometry (in Bohr), charge = 0, multiplicity = 2:

       Center              X                  Y                   Z               Mass
    ------------   -----------------  -----------------  -----------------  -----------------
         O            0.000000000000    -2.095232738000     0.266600408902    15.994914619570
         N            0.000000000000     0.000000000000    -0.609044953498    14.003074004430
         O           -0.000000000000     2.095232738000     0.266600408902    15.994914619570

  Charge       = 0
  Multiplicity = 2
  Basis Set: ANONYMOUS338D2CA8
    Blend: 6-31G_2DFP_
  Basis Set: (ANONYMOUS338D2CA8 AUX)
    Blend: DEF2-UNIVERSAL-JKFIT

    Orbital Energies [Eh]
    ---------------------

    Alpha Occupied:

       1B2   -19.258378     1A1   -19.258356     2A1   -14.578318
       3A1    -1.277107     2B2    -1.132744     4A1    -0.676801
       5A1    -0.573653     3B2    -0.570892     1B1    -0.563218
       4B2    -0.380950     1A2    -0.375945     6A1    -0.283803

    Alpha Virtual:

       2B1    -0.086999     7A1     0.208659     5B2     0.367571
       8A1     0.536407     6B2     0.547996     3B1     0.601183
       9A1     0.624756    10A1     0.754744     7B2     0.828511
       2A2     0.838618    11A1     0.845792     4B1     0.871086
       8B2     0.897313    12A1     0.927252     5B1     0.956192
       3A2     1.061997     9B2     1.349535    13A1     1.438095
       4A2     1.439765    10B2     1.506707     6B1     1.547672
      14A1     1.573724    11B2     1.634877    15A1     1.882547
       7B1     1.980369    12B2     2.111548     5A2     2.206388
      16A1     2.363493    13B2     2.528364    17A1     2.562138
       8B1     3.412362    18A1     3.427759     6A2     3.689403
      14B2     3.707588     9B1     3.908099    15B2     4.064064
      19A1     4.128471    20A1     4.427986     7A2     4.437552
      10B1     4.551988    16B2     4.574050    21A1     4.584937
      17B2     4.953108     8A2     4.953266    11B1     4.982106
      22A1     4.986668     9A2     5.294020    12B1     5.358433
      18B2     5.395443    23A1     5.410037    24A1     5.648457
      13B1     5.966848    19B2     6.041167    10A2     6.148188
      20B2     6.471913    25A1     6.534208    11A2     6.645613
      21B2     6.671661    14B1     6.674315    26A1     6.716158
      22B2     6.927671    15B1     6.952584    12A2     7.054768
      27A1     7.089791    23B2     7.548762    28A1     7.709676

    Beta Occupied:

       1B2   -19.249378     1A1   -19.249352     2A1   -14.567766
       3A1    -1.258399     2B2    -1.111607     4A1    -0.643751
       1B1    -0.552643     3B2    -0.547593     5A1    -0.527861
       1A2    -0.368866     4B2    -0.340443

    Beta Virtual:

       6A1    -0.137713     2B1    -0.070650     7A1     0.221729
       5B2     0.390075     8A1     0.552866     6B2     0.555289
       3B1     0.609150     9A1     0.654099    10A1     0.761596
       7B2     0.841537     2A2     0.842616    11A1     0.866764
       4B1     0.885596     8B2     0.920008    12A1     0.945596
       5B1     0.962816     3A2     1.065981     9B2     1.361892
       4A2     1.447305    13A1     1.458259    10B2     1.521110
       6B1     1.567546    14A1     1.585544    11B2     1.642210
      15A1     1.899239     7B1     1.983880    12B2     2.131232
       5A2     2.217906    16A1     2.378822    13B2     2.538246
      17A1     2.585450     8B1     3.438434    18A1     3.452444
       6A2     3.697073    14B2     3.717437     9B1     3.917138
      15B2     4.081871    19A1     4.143015     7A2     4.449105
      20A1     4.455649    10B1     4.593112    16B2     4.606759
      21A1     4.615119     8A2     4.966335    17B2     4.966519
      11B1     5.001679    22A1     5.005484     9A2     5.315569
      12B1     5.364995    18B2     5.412773    23A1     5.419801
      24A1     5.677067    13B1     5.981935    19B2     6.063629
      10A2     6.154839    20B2     6.492130    25A1     6.555540
      11A2     6.667905    21B2     6.697363    14B1     6.706997
      26A1     6.740546    15B1     6.957949    22B2     6.960720
      12A2     7.068344    27A1     7.120666    23B2     7.569002
      28A1     7.725886

    Final Occupation by Irrep:
             A1    A2    B1    B2
    DOCC [     5,    1,    1,    4 ]
    SOCC [     1,    0,    0,    0 ]

  @DF-UKS Final Energy:  -205.08021440410627

   => Energetics <=

    Nuclear Repulsion Energy =             64.5935277076581258
    One-Electron Energy =                -408.0939605462627924
    Two-Electron Energy =                 157.7810451476135540
    DFT Exchange-Correlation Energy =     -19.3608267131151948
    Empirical Dispersion Energy =           0.0000000000000000
    VV10 Nonlocal Energy =                  0.0000000000000000
    Total Energy =                       -205.0802144041062718

  UHF NO Occupations:
  HONO-2 :    5 A1 1.9994464
  HONO-1 :    4 B2 1.9990877
  HONO-0 :    6 A1 1.0000000
  LUNO+0 :    5 B2 0.0009123
  LUNO+1 :    7 A1 0.0005536
  LUNO+2 :    2 B1 0.0001330
  LUNO+3 :    8 A1 0.0000746

Computation Completed

Properties will be evaluated at   0.000000,   0.000000,   0.000000 [a0]

Properties computed using the SCF density matrix

  Nuclear Dipole Moment: [e a0]
     X:     0.0000      Y:     0.0000      Z:     0.0023

  Electronic Dipole Moment: [e a0]
     X:     0.0000      Y:     0.0000      Z:    -0.1248

  Dipole Moment: [e a0]
     X:     0.0000      Y:     0.0000      Z:    -0.1225     Total:     0.1225

  Dipole Moment: [D]
     X:     0.0000      Y:     0.0000      Z:    -0.3114     Total:     0.3114

*** tstop() called on n080 at Fri Nov  5 10:47:03 2021
Module time:
	user time   =      16.14 seconds =       0.27 minutes
	system time =       0.21 seconds =       0.00 minutes
	total time  =         16 seconds =       0.27 minutes
Total time:
	user time   =      16.14 seconds =       0.27 minutes
	system time =       0.21 seconds =       0.00 minutes
	total time  =         16 seconds =       0.27 minutes
Grab this energy -205.08021440410627
    Psi4 stopped on: Friday, 05 November 2021 10:47AM
    Psi4 wall time for execution: 0:00:16.40

*** Psi4 exiting successfully. Buy a developer a beer!
