                               Psi4 1.4a2.dev629

  ==> Input File <==

--------------------------------------------------------------------------
import os
memory 14 GB

molecule {
 SI   -0.0875378948    0.0028430377    0.0000000380
 H    0.7710441463   -1.3375531227   -2.3020377848
 H    0.7701350163    2.6722633805   -0.0000001125
 H    0.7710441322   -1.3375532955    2.3020378593
units bohr
0 2
}

basis {

assign 6-31g_2dfp_

[ 6-31g_2dfp_ ]

spherical

!----------------------------------------------------------------------
! Basis Set Exchange
! Version v0.8.13
! https://www.basissetexchange.org
!----------------------------------------------------------------------
!   Basis set: 6-31G(2df,p)
! Description: 6-31G(2df,p)
!        Role: orbital
!     Version: 0  (Data from the original Basis Set Exchange)
!----------------------------------------------------------------------

****
H     0
S    3   1.00
     18.7311370              0.03349460
      2.8253937              0.23472695
      0.6401217              0.81375733
S    1   1.00
      0.1612778              1.00000000
P    1   1.00
      1.5000000              1.0000000
P    1   1.00
      0.3750000              1.0000000
****
B     0
S    6   1.00
   2068.8823000              0.0018663
    310.6495700              0.0142515
     70.6830330              0.0695516
     19.8610800              0.2325729
      6.2993048              0.4670787
      2.1270270              0.3634314
SP   3   1.00
      4.7279710             -0.1303938              0.0745976
      1.1903377             -0.1307889              0.3078467
      0.3594117              1.1309444              0.7434568
SP   1   1.00
      0.1267512              1.0000000              1.0000000
D    1   1.00
      0.8020000              1.0000000
D    1   1.00
      0.2005000              1.0000000
F    1   1.00
      0.5000000              1.0000000
****
C     0
S    6   1.00
   3047.5249000              0.0018347
    457.3695100              0.0140373
    103.9486900              0.0688426
     29.2101550              0.2321844
      9.2866630              0.4679413
      3.1639270              0.3623120
SP   3   1.00
      7.8682724             -0.1193324              0.0689991
      1.8812885             -0.1608542              0.3164240
      0.5442493              1.1434564              0.7443083
SP   1   1.00
      0.1687144              1.0000000              1.0000000
D    1   1.00
      1.2520000              1.0000000
D    1   1.00
      0.3130000              1.0000000
F    1   1.00
      0.8000000              1.0000000
****
N     0
S    6   1.00
   4173.5110000              0.0018348
    627.4579000              0.0139950
    142.9021000              0.0685870
     40.2343300              0.2322410
     12.8202100              0.4690700
      4.3904370              0.3604550
SP   3   1.00
     11.6263580             -0.1149610              0.0675800
      2.7162800             -0.1691180              0.3239070
      0.7722180              1.1458520              0.7408950
SP   1   1.00
      0.2120313              1.0000000              1.0000000
D    1   1.00
      1.8260000              1.0000000
D    1   1.00
      0.4565000              1.0000000
F    1   1.00
      1.0000000              1.0000000
****
O     0
S    6   1.00
   5484.6717000              0.0018311
    825.2349500              0.0139501
    188.0469600              0.0684451
     52.9645000              0.2327143
     16.8975700              0.4701930
      5.7996353              0.3585209
SP   3   1.00
     15.5396160             -0.1107775              0.0708743
      3.5999336             -0.1480263              0.3397528
      1.0137618              1.1307670              0.7271586
SP   1   1.00
      0.2700058              1.0000000              1.0000000
D    1   1.00
      2.5840000              1.0000000
D    1   1.00
      0.6460000              1.0000000
F    1   1.00
      1.4000000              1.0000000
****
F     0
S    6   1.00
   7001.7130900              0.0018196169
   1051.3660900              0.0139160796
    239.2856900              0.0684053245
     67.3974453              0.233185760
     21.5199573              0.471267439
      7.40310130             0.356618546
SP   3   1.00
     20.8479528             -0.108506975            0.0716287243
      4.80830834            -0.146451658            0.3459121030
      1.34406986             1.128688580            0.7224699570
SP   1   1.00
      0.358151393            1.0000000              1.0000000
D    1   1.00
      3.5000000              1.0000000
D    1   1.00
      0.8750000              1.0000000
F    1   1.00
      1.8500000              1.0000000
****
Al     0
S    6   1.00
  13983.1000000              0.00194267
   2098.7500000              0.0148599
    477.7050000              0.0728494
    134.3600000              0.2468300
     42.8709000              0.4872580
     14.5189000              0.3234960
SP   6   1.00
    239.6680000             -0.00292619             0.00460285
     57.4419000             -0.0374080              0.0331990
     18.2859000             -0.1144870              0.1362820
      6.5991400              0.1156350              0.3304760
      2.4904900              0.6125950              0.4491460
      0.9445400              0.3937990              0.2657040
SP   3   1.00
      1.2779000             -0.2276060             -0.0175130
      0.3975900              0.00144583             0.2445330
      0.1600950              1.0927900              0.8049340
SP   1   1.00
      0.0556577              1.0000000              1.0000000
D    1   1.00
      0.6500000              1.0000000
D    1   1.00
      0.1625000              1.0000000
F    1   1.00
      0.2500000              1.0000000
****
Si     0
S    6   1.00
  16115.9000000              0.00195948
   2425.5800000              0.01492880
    553.8670000              0.07284780
    156.3400000              0.24613000
     50.0683000              0.48591400
     17.0178000              0.32500200
SP   6   1.00
    292.7180000             -0.00278094             0.00443826
     69.8731000             -0.03571460             0.03266790
     22.3363000             -0.11498500             0.13472100
      8.1503900              0.09356340             0.32867800
      3.1345800              0.60301700             0.44964000
      1.2254300              0.41895900             0.26137200
SP   3   1.00
      1.7273800             -0.24463000            -0.01779510
      0.5729220              0.00431572             0.25353900
      0.2221920              1.09818000             0.80066900
SP   1   1.00
      0.0778369              1.00000000             1.00000000
D    1   1.00
      0.9000000              1.0000000
D    1   1.00
      0.2250000              1.0000000
F    1   1.00
      0.3200000              1.0000000
****
P     0
S    6   1.00
  19413.3000000              0.0018516
   2909.4200000              0.0142062
    661.3640000              0.0699995
    185.7590000              0.2400790
     59.1943000              0.4847620
     20.0310000              0.3352000
SP   6   1.00
    339.4780000             -0.00278217             0.00456462
     81.0101000             -0.0360499              0.03369360
     25.8780000             -0.1166310              0.13975500
      9.4522100              0.0968328              0.33936200
      3.6656600              0.6144180              0.45092100
      1.4674600              0.4037980              0.23858600
SP   3   1.00
      2.1562300             -0.2529230             -0.01776530
      0.7489970              0.0328517              0.27405800
      0.2831450              1.0812500              0.78542100
SP   1   1.00
      0.0998317              1.0000000              1.00000000
D    1   1.00
      1.1000000              1.0000000
D    1   1.00
      0.2750000              1.0000000
F    1   1.00
      0.4500000              1.0000000
****
S     0
S    6   1.00
  21917.1000000              0.0018690
   3301.4900000              0.0142300
    754.1460000              0.0696960
    212.7110000              0.2384870
     67.9896000              0.4833070
     23.0515000              0.3380740
SP   6   1.00
    423.7350000             -0.0023767              0.0040610
    100.7100000             -0.0316930              0.0306810
     32.1599000             -0.1133170              0.1304520
     11.8079000              0.0560900              0.3272050
      4.6311000              0.5922550              0.4528510
      1.8702500              0.4550060              0.2560420
SP   3   1.00
      2.6158400             -0.2503740             -0.0145110
      0.9221670              0.0669570              0.3102630
      0.3412870              1.0545100              0.7544830
SP   1   1.00
      0.1171670              1.0000000              1.0000000
D    1   1.00
      1.3000000              1.0000000
D    1   1.00
      0.3250000              1.0000000
F    1   1.00
      0.5500000              1.0000000
****
Cl     0
S    6   1.00
  25180.1000000              0.0018330
   3780.3500000              0.0140340
    860.4740000              0.0690970
    242.1450000              0.2374520
     77.3349000              0.4830340
     26.2470000              0.3398560
SP   6   1.00
    491.7650000             -0.0022974              0.0039894
    116.9840000             -0.0307140              0.0303180
     37.4153000             -0.1125280              0.1298800
     13.7834000              0.0450160              0.3279510
      5.4521500              0.5893530              0.4535270
      2.2258800              0.4652060              0.2521540
SP   3   1.00
      3.1864900             -0.2518300             -0.0142990
      1.1442700              0.0615890              0.3235720
      0.4203770              1.0601800              0.7435070
SP   1   1.00
      0.1426570              1.0000000              1.0000000
D    1   1.00
      1.5000000              1.0000000
D    1   1.00
      0.3750000              1.0000000
F    1   1.00
      0.7000000              1.0000000
****
}

set {
reference uhf
freeze_core true
e_convergence 10
d_convergence 10
dft_spherical_points 1202
dft_radial_points 99
}

e = energy('b3lyp')

print_out('Grab this energy {0}'.format(e))
--------------------------------------------------------------------------

    Molecular point group: c1

    Geometry (in Bohr), charge = 0, multiplicity = 2:

       Center              X                  Y                   Z               Mass
    ------------   -----------------  -----------------  -----------------  -----------------
         SI          -0.083708114250     0.000369709347     0.000000004942    27.976926534650
         H            0.774873926850    -1.340026451053    -2.302037817858     1.007825032230
         H            0.773964796850     2.669790052147    -0.000000145558     1.007825032230
         H            0.774873912750    -1.340026623853     2.302037826242     1.007825032230

  Charge       = 0
  Multiplicity = 2
  Basis Set: ANONYMOUSD85F5254
    Blend: 6-31G_2DFP_
  Basis Set: (ANONYMOUSD85F5254 AUX)
    Blend: DEF2-UNIVERSAL-JKFIT

    Orbital Energies [Eh]
    ---------------------

    Alpha Occupied:

       1A    -66.128035     2A     -5.286870     3A     -3.649177
       4A     -3.643097     5A     -3.643073     6A     -0.541448
       7A     -0.360386     8A     -0.359851     9A     -0.222030

    Alpha Virtual:

      10A      0.045005    11A      0.045870    12A      0.080071
      13A      0.144260    14A      0.216107    15A      0.216471
      16A      0.235381    17A      0.245571    18A      0.245843
      19A      0.380855    20A      0.453793    21A      0.454382
      22A      0.632181    23A      0.690494    24A      0.691483
      25A      0.700140    26A      0.773179    27A      0.774255
      28A      0.814169    29A      0.943948    30A      0.944984
      31A      1.102909    32A      1.186723    33A      1.187963
      34A      1.281453    35A      1.281751    36A      1.294013
      37A      1.338916    38A      1.615604    39A      1.650664
      40A      1.655456    41A      1.695962    42A      1.696091
      43A      1.783520    44A      1.892088    45A      1.893518
      46A      3.792275    47A      3.793544    48A      3.794112
      49A      3.851050    50A      3.855335    51A      3.856336
      52A      4.026134    53A      4.030927    54A      4.059706

    Beta Occupied:

       1A    -66.124738     2A     -5.282831     3A     -3.640740
       4A     -3.640719     5A     -3.639014     6A     -0.520976
       7A     -0.354083     8A     -0.353587

    Beta Virtual:

       9A     -0.104919    10A      0.056843    11A      0.057747
      12A      0.098321    13A      0.155802    14A      0.222717
      15A      0.223072    16A      0.266305    17A      0.270793
      18A      0.271204    19A      0.419696    20A      0.462516
      21A      0.463171    22A      0.633282    23A      0.707570
      24A      0.708489    25A      0.708791    26A      0.789524
      27A      0.790629    28A      0.823454    29A      0.958135
      30A      0.959205    31A      1.138381    32A      1.201115
      33A      1.202403    34A      1.300255    35A      1.300624
      36A      1.302063    37A      1.345547    38A      1.627386
      39A      1.658687    40A      1.663913    41A      1.708060
      42A      1.708734    43A      1.802986    44A      1.900790
      45A      1.902316    46A      3.795180    47A      3.797779
      48A      3.798241    49A      3.855190    50A      3.858242
      51A      3.859263    52A      4.029910    53A      4.034666
      54A      4.064199

    Final Occupation by Irrep:
              A
    DOCC [     8 ]
    SOCC [     1 ]

  @DF-UKS Final Energy:  -291.23884202960227

   => Energetics <=

    Nuclear Repulsion Energy =             15.6472837939540845
    One-Electron Energy =                -433.7398093794257647
    Two-Electron Energy =                 144.5860322415520898
    DFT Exchange-Correlation Energy =     -17.7323486856826626
    Empirical Dispersion Energy =           0.0000000000000000
    VV10 Nonlocal Energy =                  0.0000000000000000
    Total Energy =                       -291.2388420296022673

  UHF NO Occupations:
  HONO-2 :    7  A 1.9998719
  HONO-1 :    8  A 1.9992728
  HONO-0 :    9  A 1.0000000
  LUNO+0 :   10  A 0.0007272
  LUNO+1 :   11  A 0.0001281
  LUNO+2 :   12  A 0.0001263
  LUNO+3 :   13  A 0.0000002

Computation Completed

Properties will be evaluated at   0.000000,   0.000000,   0.000000 [a0]

Properties computed using the SCF density matrix

  Nuclear Dipole Moment: [e a0]
     X:     1.1518      Y:    -0.0051      Z:    -0.0000

  Electronic Dipole Moment: [e a0]
     X:    -1.1513      Y:     0.0069      Z:     0.0000

  Dipole Moment: [e a0]
     X:     0.0005      Y:     0.0018      Z:     0.0000     Total:     0.0019

  Dipole Moment: [D]
     X:     0.0013      Y:     0.0046      Z:     0.0000     Total:     0.0048

*** tstop() called on n077 at Thu Nov  4 14:20:17 2021
Module time:
	user time   =      14.63 seconds =       0.24 minutes
	system time =       0.21 seconds =       0.00 minutes
	total time  =         15 seconds =       0.25 minutes
Total time:
	user time   =      14.63 seconds =       0.24 minutes
	system time =       0.21 seconds =       0.00 minutes
	total time  =         15 seconds =       0.25 minutes
Grab this energy -291.23884202960227
    Psi4 stopped on: Thursday, 04 November 2021 02:20PM
    Psi4 wall time for execution: 0:00:14.88

*** Psi4 exiting successfully. Buy a developer a beer!
