                               Psi4 1.4a2.dev629

  ==> Input File <==

--------------------------------------------------------------------------
import os
memory 14 GB

molecule {
 C    1.1709199712   -0.0437267481    0.0000000000
 H    2.0968057068   -1.8923958473   -0.0000000000
 H    2.3989927276    1.6101769848    0.0000000000
 C   -1.3040906984    0.1598296219    0.0000000000
 H   -2.9076533672   -1.1077617914    0.0000000000
units bohr
0 2
}

basis {

assign 6-31g_2dfp_

[ 6-31g_2dfp_ ]

spherical

!----------------------------------------------------------------------
! Basis Set Exchange
! Version v0.8.13
! https://www.basissetexchange.org
!----------------------------------------------------------------------
!   Basis set: 6-31G(2df,p)
! Description: 6-31G(2df,p)
!        Role: orbital
!     Version: 0  (Data from the original Basis Set Exchange)
!----------------------------------------------------------------------

****
H     0
S    3   1.00
     18.7311370              0.03349460
      2.8253937              0.23472695
      0.6401217              0.81375733
S    1   1.00
      0.1612778              1.00000000
P    1   1.00
      1.5000000              1.0000000
P    1   1.00
      0.3750000              1.0000000
****
B     0
S    6   1.00
   2068.8823000              0.0018663
    310.6495700              0.0142515
     70.6830330              0.0695516
     19.8610800              0.2325729
      6.2993048              0.4670787
      2.1270270              0.3634314
SP   3   1.00
      4.7279710             -0.1303938              0.0745976
      1.1903377             -0.1307889              0.3078467
      0.3594117              1.1309444              0.7434568
SP   1   1.00
      0.1267512              1.0000000              1.0000000
D    1   1.00
      0.8020000              1.0000000
D    1   1.00
      0.2005000              1.0000000
F    1   1.00
      0.5000000              1.0000000
****
C     0
S    6   1.00
   3047.5249000              0.0018347
    457.3695100              0.0140373
    103.9486900              0.0688426
     29.2101550              0.2321844
      9.2866630              0.4679413
      3.1639270              0.3623120
SP   3   1.00
      7.8682724             -0.1193324              0.0689991
      1.8812885             -0.1608542              0.3164240
      0.5442493              1.1434564              0.7443083
SP   1   1.00
      0.1687144              1.0000000              1.0000000
D    1   1.00
      1.2520000              1.0000000
D    1   1.00
      0.3130000              1.0000000
F    1   1.00
      0.8000000              1.0000000
****
N     0
S    6   1.00
   4173.5110000              0.0018348
    627.4579000              0.0139950
    142.9021000              0.0685870
     40.2343300              0.2322410
     12.8202100              0.4690700
      4.3904370              0.3604550
SP   3   1.00
     11.6263580             -0.1149610              0.0675800
      2.7162800             -0.1691180              0.3239070
      0.7722180              1.1458520              0.7408950
SP   1   1.00
      0.2120313              1.0000000              1.0000000
D    1   1.00
      1.8260000              1.0000000
D    1   1.00
      0.4565000              1.0000000
F    1   1.00
      1.0000000              1.0000000
****
O     0
S    6   1.00
   5484.6717000              0.0018311
    825.2349500              0.0139501
    188.0469600              0.0684451
     52.9645000              0.2327143
     16.8975700              0.4701930
      5.7996353              0.3585209
SP   3   1.00
     15.5396160             -0.1107775              0.0708743
      3.5999336             -0.1480263              0.3397528
      1.0137618              1.1307670              0.7271586
SP   1   1.00
      0.2700058              1.0000000              1.0000000
D    1   1.00
      2.5840000              1.0000000
D    1   1.00
      0.6460000              1.0000000
F    1   1.00
      1.4000000              1.0000000
****
F     0
S    6   1.00
   7001.7130900              0.0018196169
   1051.3660900              0.0139160796
    239.2856900              0.0684053245
     67.3974453              0.233185760
     21.5199573              0.471267439
      7.40310130             0.356618546
SP   3   1.00
     20.8479528             -0.108506975            0.0716287243
      4.80830834            -0.146451658            0.3459121030
      1.34406986             1.128688580            0.7224699570
SP   1   1.00
      0.358151393            1.0000000              1.0000000
D    1   1.00
      3.5000000              1.0000000
D    1   1.00
      0.8750000              1.0000000
F    1   1.00
      1.8500000              1.0000000
****
Al     0
S    6   1.00
  13983.1000000              0.00194267
   2098.7500000              0.0148599
    477.7050000              0.0728494
    134.3600000              0.2468300
     42.8709000              0.4872580
     14.5189000              0.3234960
SP   6   1.00
    239.6680000             -0.00292619             0.00460285
     57.4419000             -0.0374080              0.0331990
     18.2859000             -0.1144870              0.1362820
      6.5991400              0.1156350              0.3304760
      2.4904900              0.6125950              0.4491460
      0.9445400              0.3937990              0.2657040
SP   3   1.00
      1.2779000             -0.2276060             -0.0175130
      0.3975900              0.00144583             0.2445330
      0.1600950              1.0927900              0.8049340
SP   1   1.00
      0.0556577              1.0000000              1.0000000
D    1   1.00
      0.6500000              1.0000000
D    1   1.00
      0.1625000              1.0000000
F    1   1.00
      0.2500000              1.0000000
****
Si     0
S    6   1.00
  16115.9000000              0.00195948
   2425.5800000              0.01492880
    553.8670000              0.07284780
    156.3400000              0.24613000
     50.0683000              0.48591400
     17.0178000              0.32500200
SP   6   1.00
    292.7180000             -0.00278094             0.00443826
     69.8731000             -0.03571460             0.03266790
     22.3363000             -0.11498500             0.13472100
      8.1503900              0.09356340             0.32867800
      3.1345800              0.60301700             0.44964000
      1.2254300              0.41895900             0.26137200
SP   3   1.00
      1.7273800             -0.24463000            -0.01779510
      0.5729220              0.00431572             0.25353900
      0.2221920              1.09818000             0.80066900
SP   1   1.00
      0.0778369              1.00000000             1.00000000
D    1   1.00
      0.9000000              1.0000000
D    1   1.00
      0.2250000              1.0000000
F    1   1.00
      0.3200000              1.0000000
****
P     0
S    6   1.00
  19413.3000000              0.0018516
   2909.4200000              0.0142062
    661.3640000              0.0699995
    185.7590000              0.2400790
     59.1943000              0.4847620
     20.0310000              0.3352000
SP   6   1.00
    339.4780000             -0.00278217             0.00456462
     81.0101000             -0.0360499              0.03369360
     25.8780000             -0.1166310              0.13975500
      9.4522100              0.0968328              0.33936200
      3.6656600              0.6144180              0.45092100
      1.4674600              0.4037980              0.23858600
SP   3   1.00
      2.1562300             -0.2529230             -0.01776530
      0.7489970              0.0328517              0.27405800
      0.2831450              1.0812500              0.78542100
SP   1   1.00
      0.0998317              1.0000000              1.00000000
D    1   1.00
      1.1000000              1.0000000
D    1   1.00
      0.2750000              1.0000000
F    1   1.00
      0.4500000              1.0000000
****
S     0
S    6   1.00
  21917.1000000              0.0018690
   3301.4900000              0.0142300
    754.1460000              0.0696960
    212.7110000              0.2384870
     67.9896000              0.4833070
     23.0515000              0.3380740
SP   6   1.00
    423.7350000             -0.0023767              0.0040610
    100.7100000             -0.0316930              0.0306810
     32.1599000             -0.1133170              0.1304520
     11.8079000              0.0560900              0.3272050
      4.6311000              0.5922550              0.4528510
      1.8702500              0.4550060              0.2560420
SP   3   1.00
      2.6158400             -0.2503740             -0.0145110
      0.9221670              0.0669570              0.3102630
      0.3412870              1.0545100              0.7544830
SP   1   1.00
      0.1171670              1.0000000              1.0000000
D    1   1.00
      1.3000000              1.0000000
D    1   1.00
      0.3250000              1.0000000
F    1   1.00
      0.5500000              1.0000000
****
Cl     0
S    6   1.00
  25180.1000000              0.0018330
   3780.3500000              0.0140340
    860.4740000              0.0690970
    242.1450000              0.2374520
     77.3349000              0.4830340
     26.2470000              0.3398560
SP   6   1.00
    491.7650000             -0.0022974              0.0039894
    116.9840000             -0.0307140              0.0303180
     37.4153000             -0.1125280              0.1298800
     13.7834000              0.0450160              0.3279510
      5.4521500              0.5893530              0.4535270
      2.2258800              0.4652060              0.2521540
SP   3   1.00
      3.1864900             -0.2518300             -0.0142990
      1.1442700              0.0615890              0.3235720
      0.4203770              1.0601800              0.7435070
SP   1   1.00
      0.1426570              1.0000000              1.0000000
D    1   1.00
      1.5000000              1.0000000
D    1   1.00
      0.3750000              1.0000000
F    1   1.00
      0.7000000              1.0000000
****
}

set {
reference uhf
freeze_core true
e_convergence 10
d_convergence 10
dft_spherical_points 1202
dft_radial_points 99
}

e = energy('b3lyp')

print_out('Grab this energy {0}'.format(e))
--------------------------------------------------------------------------

    Molecular point group: cs

    Geometry (in Bohr), charge = 0, multiplicity = 2:

       Center              X                  Y                   Z               Mass
    ------------   -----------------  -----------------  -----------------  -----------------
         C            1.170826584723    -0.043444666995     0.000000000000    12.000000000000
         H            2.096712320323    -1.892113766195     0.000000000000     1.007825032230
         H            2.398899341123     1.610459065905     0.000000000000     1.007825032230
         C           -1.304184084877     0.160111703005     0.000000000000    12.000000000000
         H           -2.907746753677    -1.107479710295     0.000000000000     1.007825032230

  Charge       = 0
  Multiplicity = 2
  Basis Set: ANONYMOUS4CA53248
    Blend: 6-31G_2DFP_
  Basis Set: (ANONYMOUS4CA53248 AUX)
    Blend: DEF2-UNIVERSAL-JKFIT

    Orbital Energies [Eh]
    ---------------------

    Alpha Occupied:

       1Ap   -10.204034     2Ap   -10.185773     3Ap    -0.761164
       4Ap    -0.572223     5Ap    -0.457382     6Ap    -0.425678
       1App   -0.278962     7Ap    -0.234194

    Alpha Virtual:

       2App    0.013291     8Ap     0.116979     9Ap     0.121227
      10Ap     0.183732    11Ap     0.306032    12Ap     0.412628
      13Ap     0.458091    14Ap     0.474120     3App    0.489867
       4App    0.511542    15Ap     0.514523    16Ap     0.591477
       5App    0.594873    17Ap     0.638076     6App    0.654980
      18Ap     0.668073    19Ap     0.707297     7App    0.735207
      20Ap     0.858605    21Ap     0.914864     8App    0.974941
      22Ap     0.985436    23Ap     1.042107     9App    1.046948
      24Ap     1.153832    10App    1.194806    25Ap     1.247935
      11App    1.328679    26Ap     1.472310    27Ap     1.542730
      28Ap     1.601987    29Ap     1.735749    30Ap     1.807713
      31Ap     1.993857    32Ap     2.318616    12App    2.650569
      13App    2.723693    33Ap     2.772266    34Ap     2.809914
      14App    2.849249    35Ap     2.871193    36Ap     2.952656
      15App    3.046376    37Ap     3.104832    16App    3.108694
      17App    3.139866    18App    3.175022    38Ap     3.192375
      39Ap     3.257074    40Ap     3.321654    41Ap     3.385696
      42Ap     3.401006    19App    3.572416    20App    3.654159
      43Ap     3.772793    44Ap     4.016510    21App    4.057797
      22App    4.143637    45Ap     4.202986    46Ap     4.245849
      23App    4.248222    24App    4.409222    47Ap     4.506666
      48Ap     4.521863    49Ap     4.763237    50Ap     5.088747
      51Ap     5.183620    52Ap     5.407740

    Beta Occupied:

       1Ap   -10.188839     2Ap   -10.187263     3Ap    -0.743899
       4Ap    -0.550682     5Ap    -0.442384     6Ap    -0.411645
       1App   -0.271068

    Beta Virtual:

       7Ap    -0.067787     2App    0.025136     8Ap     0.119778
       9Ap     0.131732    10Ap     0.189513    11Ap     0.315795
      12Ap     0.421959    13Ap     0.476217    14Ap     0.482940
       3App    0.493861     4App    0.519696    15Ap     0.564764
       5App    0.600282    16Ap     0.612222    17Ap     0.644765
       6App    0.663531    18Ap     0.683487    19Ap     0.720519
       7App    0.757549    20Ap     0.876330    21Ap     0.932639
       8App    0.978447    22Ap     0.990806    23Ap     1.050478
       9App    1.051666    24Ap     1.163844    10App    1.202823
      25Ap     1.265713    11App    1.337379    26Ap     1.486528
      27Ap     1.550337    28Ap     1.610833    29Ap     1.752239
      30Ap     1.823962    31Ap     2.008221    32Ap     2.341072
      12App    2.662253    13App    2.752042    33Ap     2.791906
      34Ap     2.852249    14App    2.860290    35Ap     2.881809
      36Ap     2.971537    15App    3.049094    16App    3.116852
      37Ap     3.121177    17App    3.157804    38Ap     3.209395
      18App    3.228201    39Ap     3.289852    40Ap     3.346093
      41Ap     3.400598    42Ap     3.434281    19App    3.591625
      20App    3.670399    43Ap     3.797530    44Ap     4.030418
      21App    4.067067    22App    4.152201    45Ap     4.214600
      23App    4.256070    46Ap     4.262823    24App    4.419864
      47Ap     4.528942    48Ap     4.547673    49Ap     4.777974
      50Ap     5.101031    51Ap     5.194845    52Ap     5.419542

    Final Occupation by Irrep:
             Ap   App
    DOCC [     6,    1 ]
    SOCC [     1,    0 ]

  @DF-UKS Final Energy:   -77.90788313081751

   => Energetics <=

    Nuclear Repulsion Energy =             28.3386213354693410
    One-Electron Energy =                -159.6494410718502479
    Two-Electron Energy =                  63.0275319695495995
    DFT Exchange-Correlation Energy =      -9.6245953639862165
    Empirical Dispersion Energy =           0.0000000000000000
    VV10 Nonlocal Energy =                  0.0000000000000000
    Total Energy =                        -77.9078831308175097

  UHF NO Occupations:
  HONO-2 :    6 Ap 1.9992604
  HONO-1 :    1App 1.9957714
  HONO-0 :    7 Ap 1.0000000
  LUNO+0 :    2App 0.0042286
  LUNO+1 :    8 Ap 0.0007396
  LUNO+2 :    9 Ap 0.0002359
  LUNO+3 :   10 Ap 0.0001328

Computation Completed

Properties will be evaluated at   0.000000,   0.000000,   0.000000 [a0]

Properties computed using the SCF density matrix

  Nuclear Dipole Moment: [e a0]
     X:     0.7877      Y:    -0.6891      Z:     0.0000

  Electronic Dipole Moment: [e a0]
     X:    -0.7028      Y:     0.4721      Z:     0.0000

  Dipole Moment: [e a0]
     X:     0.0849      Y:    -0.2171      Z:     0.0000     Total:     0.2331

  Dipole Moment: [D]
     X:     0.2159      Y:    -0.5517      Z:     0.0000     Total:     0.5925

*** tstop() called on n080 at Thu Nov  4 14:37:17 2021
Module time:
	user time   =      29.29 seconds =       0.49 minutes
	system time =       0.40 seconds =       0.01 minutes
	total time  =         30 seconds =       0.50 minutes
Total time:
	user time   =      29.29 seconds =       0.49 minutes
	system time =       0.40 seconds =       0.01 minutes
	total time  =         30 seconds =       0.50 minutes
Grab this energy -77.90788313081751
    Psi4 stopped on: Thursday, 04 November 2021 02:37PM
    Psi4 wall time for execution: 0:00:29.72

*** Psi4 exiting successfully. Buy a developer a beer!
