                               Psi4 1.4a2.dev629

  ==> Input File <==

--------------------------------------------------------------------------
import os
memory 14 GB

molecule {
 C    1.1715415847   -0.0446656216    0.0023008402
 H    2.0980008911   -1.8852085559   -0.0008490609
 H    2.3987861278    1.6031169444   -0.0006461099
 C   -1.3106102897    0.1574622769   -0.0010713761
 H   -2.9027439740   -1.1045828239    0.0002657066
units bohr
0 2
}

basis {

assign 6-31g_2dfp_

[ 6-31g_2dfp_ ]

spherical

!----------------------------------------------------------------------
! Basis Set Exchange
! Version v0.8.13
! https://www.basissetexchange.org
!----------------------------------------------------------------------
!   Basis set: 6-31G(2df,p)
! Description: 6-31G(2df,p)
!        Role: orbital
!     Version: 0  (Data from the original Basis Set Exchange)
!----------------------------------------------------------------------

****
H     0
S    3   1.00
     18.7311370              0.03349460
      2.8253937              0.23472695
      0.6401217              0.81375733
S    1   1.00
      0.1612778              1.00000000
P    1   1.00
      1.5000000              1.0000000
P    1   1.00
      0.3750000              1.0000000
****
B     0
S    6   1.00
   2068.8823000              0.0018663
    310.6495700              0.0142515
     70.6830330              0.0695516
     19.8610800              0.2325729
      6.2993048              0.4670787
      2.1270270              0.3634314
SP   3   1.00
      4.7279710             -0.1303938              0.0745976
      1.1903377             -0.1307889              0.3078467
      0.3594117              1.1309444              0.7434568
SP   1   1.00
      0.1267512              1.0000000              1.0000000
D    1   1.00
      0.8020000              1.0000000
D    1   1.00
      0.2005000              1.0000000
F    1   1.00
      0.5000000              1.0000000
****
C     0
S    6   1.00
   3047.5249000              0.0018347
    457.3695100              0.0140373
    103.9486900              0.0688426
     29.2101550              0.2321844
      9.2866630              0.4679413
      3.1639270              0.3623120
SP   3   1.00
      7.8682724             -0.1193324              0.0689991
      1.8812885             -0.1608542              0.3164240
      0.5442493              1.1434564              0.7443083
SP   1   1.00
      0.1687144              1.0000000              1.0000000
D    1   1.00
      1.2520000              1.0000000
D    1   1.00
      0.3130000              1.0000000
F    1   1.00
      0.8000000              1.0000000
****
N     0
S    6   1.00
   4173.5110000              0.0018348
    627.4579000              0.0139950
    142.9021000              0.0685870
     40.2343300              0.2322410
     12.8202100              0.4690700
      4.3904370              0.3604550
SP   3   1.00
     11.6263580             -0.1149610              0.0675800
      2.7162800             -0.1691180              0.3239070
      0.7722180              1.1458520              0.7408950
SP   1   1.00
      0.2120313              1.0000000              1.0000000
D    1   1.00
      1.8260000              1.0000000
D    1   1.00
      0.4565000              1.0000000
F    1   1.00
      1.0000000              1.0000000
****
O     0
S    6   1.00
   5484.6717000              0.0018311
    825.2349500              0.0139501
    188.0469600              0.0684451
     52.9645000              0.2327143
     16.8975700              0.4701930
      5.7996353              0.3585209
SP   3   1.00
     15.5396160             -0.1107775              0.0708743
      3.5999336             -0.1480263              0.3397528
      1.0137618              1.1307670              0.7271586
SP   1   1.00
      0.2700058              1.0000000              1.0000000
D    1   1.00
      2.5840000              1.0000000
D    1   1.00
      0.6460000              1.0000000
F    1   1.00
      1.4000000              1.0000000
****
F     0
S    6   1.00
   7001.7130900              0.0018196169
   1051.3660900              0.0139160796
    239.2856900              0.0684053245
     67.3974453              0.233185760
     21.5199573              0.471267439
      7.40310130             0.356618546
SP   3   1.00
     20.8479528             -0.108506975            0.0716287243
      4.80830834            -0.146451658            0.3459121030
      1.34406986             1.128688580            0.7224699570
SP   1   1.00
      0.358151393            1.0000000              1.0000000
D    1   1.00
      3.5000000              1.0000000
D    1   1.00
      0.8750000              1.0000000
F    1   1.00
      1.8500000              1.0000000
****
Al     0
S    6   1.00
  13983.1000000              0.00194267
   2098.7500000              0.0148599
    477.7050000              0.0728494
    134.3600000              0.2468300
     42.8709000              0.4872580
     14.5189000              0.3234960
SP   6   1.00
    239.6680000             -0.00292619             0.00460285
     57.4419000             -0.0374080              0.0331990
     18.2859000             -0.1144870              0.1362820
      6.5991400              0.1156350              0.3304760
      2.4904900              0.6125950              0.4491460
      0.9445400              0.3937990              0.2657040
SP   3   1.00
      1.2779000             -0.2276060             -0.0175130
      0.3975900              0.00144583             0.2445330
      0.1600950              1.0927900              0.8049340
SP   1   1.00
      0.0556577              1.0000000              1.0000000
D    1   1.00
      0.6500000              1.0000000
D    1   1.00
      0.1625000              1.0000000
F    1   1.00
      0.2500000              1.0000000
****
Si     0
S    6   1.00
  16115.9000000              0.00195948
   2425.5800000              0.01492880
    553.8670000              0.07284780
    156.3400000              0.24613000
     50.0683000              0.48591400
     17.0178000              0.32500200
SP   6   1.00
    292.7180000             -0.00278094             0.00443826
     69.8731000             -0.03571460             0.03266790
     22.3363000             -0.11498500             0.13472100
      8.1503900              0.09356340             0.32867800
      3.1345800              0.60301700             0.44964000
      1.2254300              0.41895900             0.26137200
SP   3   1.00
      1.7273800             -0.24463000            -0.01779510
      0.5729220              0.00431572             0.25353900
      0.2221920              1.09818000             0.80066900
SP   1   1.00
      0.0778369              1.00000000             1.00000000
D    1   1.00
      0.9000000              1.0000000
D    1   1.00
      0.2250000              1.0000000
F    1   1.00
      0.3200000              1.0000000
****
P     0
S    6   1.00
  19413.3000000              0.0018516
   2909.4200000              0.0142062
    661.3640000              0.0699995
    185.7590000              0.2400790
     59.1943000              0.4847620
     20.0310000              0.3352000
SP   6   1.00
    339.4780000             -0.00278217             0.00456462
     81.0101000             -0.0360499              0.03369360
     25.8780000             -0.1166310              0.13975500
      9.4522100              0.0968328              0.33936200
      3.6656600              0.6144180              0.45092100
      1.4674600              0.4037980              0.23858600
SP   3   1.00
      2.1562300             -0.2529230             -0.01776530
      0.7489970              0.0328517              0.27405800
      0.2831450              1.0812500              0.78542100
SP   1   1.00
      0.0998317              1.0000000              1.00000000
D    1   1.00
      1.1000000              1.0000000
D    1   1.00
      0.2750000              1.0000000
F    1   1.00
      0.4500000              1.0000000
****
S     0
S    6   1.00
  21917.1000000              0.0018690
   3301.4900000              0.0142300
    754.1460000              0.0696960
    212.7110000              0.2384870
     67.9896000              0.4833070
     23.0515000              0.3380740
SP   6   1.00
    423.7350000             -0.0023767              0.0040610
    100.7100000             -0.0316930              0.0306810
     32.1599000             -0.1133170              0.1304520
     11.8079000              0.0560900              0.3272050
      4.6311000              0.5922550              0.4528510
      1.8702500              0.4550060              0.2560420
SP   3   1.00
      2.6158400             -0.2503740             -0.0145110
      0.9221670              0.0669570              0.3102630
      0.3412870              1.0545100              0.7544830
SP   1   1.00
      0.1171670              1.0000000              1.0000000
D    1   1.00
      1.3000000              1.0000000
D    1   1.00
      0.3250000              1.0000000
F    1   1.00
      0.5500000              1.0000000
****
Cl     0
S    6   1.00
  25180.1000000              0.0018330
   3780.3500000              0.0140340
    860.4740000              0.0690970
    242.1450000              0.2374520
     77.3349000              0.4830340
     26.2470000              0.3398560
SP   6   1.00
    491.7650000             -0.0022974              0.0039894
    116.9840000             -0.0307140              0.0303180
     37.4153000             -0.1125280              0.1298800
     13.7834000              0.0450160              0.3279510
      5.4521500              0.5893530              0.4535270
      2.2258800              0.4652060              0.2521540
SP   3   1.00
      3.1864900             -0.2518300             -0.0142990
      1.1442700              0.0615890              0.3235720
      0.4203770              1.0601800              0.7435070
SP   1   1.00
      0.1426570              1.0000000              1.0000000
D    1   1.00
      1.5000000              1.0000000
D    1   1.00
      0.3750000              1.0000000
F    1   1.00
      0.7000000              1.0000000
****
}

set {
reference uhf
freeze_core true
e_convergence 10
d_convergence 10
dft_spherical_points 1202
dft_radial_points 99
}

e = energy('b3lyp')

print_out('Grab this energy {0}'.format(e))
--------------------------------------------------------------------------

    Molecular point group: c1

    Geometry (in Bohr), charge = 0, multiplicity = 2:

       Center              X                  Y                   Z               Mass
    ------------   -----------------  -----------------  -----------------  -----------------
         C            1.173847282863    -0.043038690060     0.001800738553    12.000000000000
         H            2.100306589263    -1.883581624360    -0.001349162547     1.007825032230
         H            2.401091825963     1.604743875940    -0.001146211547     1.007825032230
         C           -1.308304591537     0.159089208440    -0.001571477747    12.000000000000
         H           -2.900438275837    -1.102955892360    -0.000234395047     1.007825032230

  Charge       = 0
  Multiplicity = 2
  Basis Set: ANONYMOUS516BC893
    Blend: 6-31G_2DFP_
  Basis Set: (ANONYMOUS516BC893 AUX)
    Blend: DEF2-UNIVERSAL-JKFIT

    Orbital Energies [Eh]
    ---------------------

    Alpha Occupied:

       1A    -10.204093     2A    -10.185683     3A     -0.760653
       4A     -0.574016     5A     -0.457703     6A     -0.426032
       7A     -0.278370     8A     -0.234680

    Alpha Virtual:

       9A      0.012338    10A      0.117845    11A      0.122911
      12A      0.184076    13A      0.305885    14A      0.413346
      15A      0.458151    16A      0.473662    17A      0.490585
      18A      0.512162    19A      0.514209    20A      0.592257
      21A      0.595842    22A      0.639074    23A      0.654691
      24A      0.670040    25A      0.707006    26A      0.734258
      27A      0.859167    28A      0.913161    29A      0.976064
      30A      0.987704    31A      1.044052    32A      1.048630
      33A      1.153733    34A      1.193946    35A      1.249185
      36A      1.329270    37A      1.473518    38A      1.544106
      39A      1.605951    40A      1.736806    41A      1.811595
      42A      1.995777    43A      2.322119    44A      2.649390
      45A      2.723982    46A      2.771701    47A      2.810158
      48A      2.850574    49A      2.868874    50A      2.954987
      51A      3.045852    52A      3.103569    53A      3.107612
      54A      3.142825    55A      3.174360    56A      3.192271
      57A      3.256561    58A      3.324285    59A      3.388347
      60A      3.398281    61A      3.570438    62A      3.651231
      63A      3.770418    64A      4.021405    65A      4.058329
      66A      4.149937    67A      4.200850    68A      4.245060
      69A      4.249699    70A      4.417539    71A      4.501271
      72A      4.533022    73A      4.771711    74A      5.097217
      75A      5.190750    76A      5.414741

    Beta Occupied:

       1A    -10.188840     2A    -10.187196     3A     -0.743381
       4A     -0.552446     5A     -0.442776     6A     -0.412181
       7A     -0.270458

    Beta Virtual:

       8A     -0.067824     9A      0.024210    10A      0.120516
      11A      0.133316    12A      0.189780    13A      0.315704
      14A      0.422713    15A      0.475837    16A      0.482674
      17A      0.494549    18A      0.520322    19A      0.564878
      20A      0.601282    21A      0.613013    22A      0.645651
      23A      0.663058    24A      0.685515    25A      0.720264
      26A      0.756776    27A      0.876795    28A      0.930952
      29A      0.979485    30A      0.993124    31A      1.052283
      32A      1.053345    33A      1.163632    34A      1.201928
      35A      1.266890    36A      1.338003    37A      1.487717
      38A      1.551725    39A      1.614863    40A      1.753720
      41A      1.827270    42A      2.010044    43A      2.344612
      44A      2.661004    45A      2.752460    46A      2.791149
      47A      2.852563    48A      2.861736    49A      2.879883
      50A      2.973582    51A      3.048534    52A      3.115531
      53A      3.120162    54A      3.161675    55A      3.209372
      56A      3.226881    57A      3.288767    58A      3.348961
      59A      3.402518    60A      3.432414    61A      3.589744
      62A      3.667520    63A      3.795304    64A      4.035386
      65A      4.067347    66A      4.158567    67A      4.212401
      68A      4.252895    69A      4.266559    70A      4.428074
      71A      4.523987    72A      4.558626    73A      4.786263
      74A      5.109271    75A      5.201795    76A      5.426578

    Final Occupation by Irrep:
              A
    DOCC [     7 ]
    SOCC [     1 ]

  @DF-UKS Final Energy:   -77.90778863915510

   => Energetics <=

    Nuclear Repulsion Energy =             28.3344194115887191
    One-Electron Energy =                -159.6361941593299605
    Two-Electron Energy =                  63.0204611984717715
    DFT Exchange-Correlation Energy =      -9.6264750898856359
    Empirical Dispersion Energy =           0.0000000000000000
    VV10 Nonlocal Energy =                  0.0000000000000000
    Total Energy =                        -77.9077886391551004

  UHF NO Occupations:
  HONO-2 :    6  A 1.9992658
  HONO-1 :    7  A 1.9956479
  HONO-0 :    8  A 1.0000000
  LUNO+0 :    9  A 0.0043521
  LUNO+1 :   10  A 0.0007342
  LUNO+2 :   11  A 0.0002337
  LUNO+3 :   12  A 0.0001342

Computation Completed

Properties will be evaluated at   0.000000,   0.000000,   0.000000 [a0]

Properties computed using the SCF density matrix

  Nuclear Dipole Moment: [e a0]
     X:     0.7942      Y:    -0.6855      Z:    -0.0014

  Electronic Dipole Moment: [e a0]
     X:    -0.7088      Y:     0.4684      Z:     0.0009

  Dipole Moment: [e a0]
     X:     0.0854      Y:    -0.2171      Z:    -0.0004     Total:     0.2333

  Dipole Moment: [D]
     X:     0.2172      Y:    -0.5519      Z:    -0.0011     Total:     0.5931

*** tstop() called on n081 at Thu Nov  4 14:35:45 2021
Module time:
	user time   =      27.64 seconds =       0.46 minutes
	system time =       0.35 seconds =       0.01 minutes
	total time  =         28 seconds =       0.47 minutes
Total time:
	user time   =      27.64 seconds =       0.46 minutes
	system time =       0.35 seconds =       0.01 minutes
	total time  =         28 seconds =       0.47 minutes
Grab this energy -77.9077886391551
    Psi4 stopped on: Thursday, 04 November 2021 02:35PM
    Psi4 wall time for execution: 0:00:28.02

*** Psi4 exiting successfully. Buy a developer a beer!
