                               Psi4 1.4a2.dev629

  ==> Input File <==

--------------------------------------------------------------------------
import os
memory 14 GB

molecule {
 C    1.1715427125   -0.0446671307   -0.0015113868
 H    2.0980056509   -1.8852103559   -0.0000550104
 H    2.3987804543    1.6031185665    0.0023692429
 C   -1.3106108602    0.1574547454   -0.0038299014
 H   -2.9027436176   -1.1045736053    0.0030270556
units bohr
0 2
}

basis {

assign 6-31g_2dfp_

[ 6-31g_2dfp_ ]

spherical

!----------------------------------------------------------------------
! Basis Set Exchange
! Version v0.8.13
! https://www.basissetexchange.org
!----------------------------------------------------------------------
!   Basis set: 6-31G(2df,p)
! Description: 6-31G(2df,p)
!        Role: orbital
!     Version: 0  (Data from the original Basis Set Exchange)
!----------------------------------------------------------------------

****
H     0
S    3   1.00
     18.7311370              0.03349460
      2.8253937              0.23472695
      0.6401217              0.81375733
S    1   1.00
      0.1612778              1.00000000
P    1   1.00
      1.5000000              1.0000000
P    1   1.00
      0.3750000              1.0000000
****
B     0
S    6   1.00
   2068.8823000              0.0018663
    310.6495700              0.0142515
     70.6830330              0.0695516
     19.8610800              0.2325729
      6.2993048              0.4670787
      2.1270270              0.3634314
SP   3   1.00
      4.7279710             -0.1303938              0.0745976
      1.1903377             -0.1307889              0.3078467
      0.3594117              1.1309444              0.7434568
SP   1   1.00
      0.1267512              1.0000000              1.0000000
D    1   1.00
      0.8020000              1.0000000
D    1   1.00
      0.2005000              1.0000000
F    1   1.00
      0.5000000              1.0000000
****
C     0
S    6   1.00
   3047.5249000              0.0018347
    457.3695100              0.0140373
    103.9486900              0.0688426
     29.2101550              0.2321844
      9.2866630              0.4679413
      3.1639270              0.3623120
SP   3   1.00
      7.8682724             -0.1193324              0.0689991
      1.8812885             -0.1608542              0.3164240
      0.5442493              1.1434564              0.7443083
SP   1   1.00
      0.1687144              1.0000000              1.0000000
D    1   1.00
      1.2520000              1.0000000
D    1   1.00
      0.3130000              1.0000000
F    1   1.00
      0.8000000              1.0000000
****
N     0
S    6   1.00
   4173.5110000              0.0018348
    627.4579000              0.0139950
    142.9021000              0.0685870
     40.2343300              0.2322410
     12.8202100              0.4690700
      4.3904370              0.3604550
SP   3   1.00
     11.6263580             -0.1149610              0.0675800
      2.7162800             -0.1691180              0.3239070
      0.7722180              1.1458520              0.7408950
SP   1   1.00
      0.2120313              1.0000000              1.0000000
D    1   1.00
      1.8260000              1.0000000
D    1   1.00
      0.4565000              1.0000000
F    1   1.00
      1.0000000              1.0000000
****
O     0
S    6   1.00
   5484.6717000              0.0018311
    825.2349500              0.0139501
    188.0469600              0.0684451
     52.9645000              0.2327143
     16.8975700              0.4701930
      5.7996353              0.3585209
SP   3   1.00
     15.5396160             -0.1107775              0.0708743
      3.5999336             -0.1480263              0.3397528
      1.0137618              1.1307670              0.7271586
SP   1   1.00
      0.2700058              1.0000000              1.0000000
D    1   1.00
      2.5840000              1.0000000
D    1   1.00
      0.6460000              1.0000000
F    1   1.00
      1.4000000              1.0000000
****
F     0
S    6   1.00
   7001.7130900              0.0018196169
   1051.3660900              0.0139160796
    239.2856900              0.0684053245
     67.3974453              0.233185760
     21.5199573              0.471267439
      7.40310130             0.356618546
SP   3   1.00
     20.8479528             -0.108506975            0.0716287243
      4.80830834            -0.146451658            0.3459121030
      1.34406986             1.128688580            0.7224699570
SP   1   1.00
      0.358151393            1.0000000              1.0000000
D    1   1.00
      3.5000000              1.0000000
D    1   1.00
      0.8750000              1.0000000
F    1   1.00
      1.8500000              1.0000000
****
Al     0
S    6   1.00
  13983.1000000              0.00194267
   2098.7500000              0.0148599
    477.7050000              0.0728494
    134.3600000              0.2468300
     42.8709000              0.4872580
     14.5189000              0.3234960
SP   6   1.00
    239.6680000             -0.00292619             0.00460285
     57.4419000             -0.0374080              0.0331990
     18.2859000             -0.1144870              0.1362820
      6.5991400              0.1156350              0.3304760
      2.4904900              0.6125950              0.4491460
      0.9445400              0.3937990              0.2657040
SP   3   1.00
      1.2779000             -0.2276060             -0.0175130
      0.3975900              0.00144583             0.2445330
      0.1600950              1.0927900              0.8049340
SP   1   1.00
      0.0556577              1.0000000              1.0000000
D    1   1.00
      0.6500000              1.0000000
D    1   1.00
      0.1625000              1.0000000
F    1   1.00
      0.2500000              1.0000000
****
Si     0
S    6   1.00
  16115.9000000              0.00195948
   2425.5800000              0.01492880
    553.8670000              0.07284780
    156.3400000              0.24613000
     50.0683000              0.48591400
     17.0178000              0.32500200
SP   6   1.00
    292.7180000             -0.00278094             0.00443826
     69.8731000             -0.03571460             0.03266790
     22.3363000             -0.11498500             0.13472100
      8.1503900              0.09356340             0.32867800
      3.1345800              0.60301700             0.44964000
      1.2254300              0.41895900             0.26137200
SP   3   1.00
      1.7273800             -0.24463000            -0.01779510
      0.5729220              0.00431572             0.25353900
      0.2221920              1.09818000             0.80066900
SP   1   1.00
      0.0778369              1.00000000             1.00000000
D    1   1.00
      0.9000000              1.0000000
D    1   1.00
      0.2250000              1.0000000
F    1   1.00
      0.3200000              1.0000000
****
P     0
S    6   1.00
  19413.3000000              0.0018516
   2909.4200000              0.0142062
    661.3640000              0.0699995
    185.7590000              0.2400790
     59.1943000              0.4847620
     20.0310000              0.3352000
SP   6   1.00
    339.4780000             -0.00278217             0.00456462
     81.0101000             -0.0360499              0.03369360
     25.8780000             -0.1166310              0.13975500
      9.4522100              0.0968328              0.33936200
      3.6656600              0.6144180              0.45092100
      1.4674600              0.4037980              0.23858600
SP   3   1.00
      2.1562300             -0.2529230             -0.01776530
      0.7489970              0.0328517              0.27405800
      0.2831450              1.0812500              0.78542100
SP   1   1.00
      0.0998317              1.0000000              1.00000000
D    1   1.00
      1.1000000              1.0000000
D    1   1.00
      0.2750000              1.0000000
F    1   1.00
      0.4500000              1.0000000
****
S     0
S    6   1.00
  21917.1000000              0.0018690
   3301.4900000              0.0142300
    754.1460000              0.0696960
    212.7110000              0.2384870
     67.9896000              0.4833070
     23.0515000              0.3380740
SP   6   1.00
    423.7350000             -0.0023767              0.0040610
    100.7100000             -0.0316930              0.0306810
     32.1599000             -0.1133170              0.1304520
     11.8079000              0.0560900              0.3272050
      4.6311000              0.5922550              0.4528510
      1.8702500              0.4550060              0.2560420
SP   3   1.00
      2.6158400             -0.2503740             -0.0145110
      0.9221670              0.0669570              0.3102630
      0.3412870              1.0545100              0.7544830
SP   1   1.00
      0.1171670              1.0000000              1.0000000
D    1   1.00
      1.3000000              1.0000000
D    1   1.00
      0.3250000              1.0000000
F    1   1.00
      0.5500000              1.0000000
****
Cl     0
S    6   1.00
  25180.1000000              0.0018330
   3780.3500000              0.0140340
    860.4740000              0.0690970
    242.1450000              0.2374520
     77.3349000              0.4830340
     26.2470000              0.3398560
SP   6   1.00
    491.7650000             -0.0022974              0.0039894
    116.9840000             -0.0307140              0.0303180
     37.4153000             -0.1125280              0.1298800
     13.7834000              0.0450160              0.3279510
      5.4521500              0.5893530              0.4535270
      2.2258800              0.4652060              0.2521540
SP   3   1.00
      3.1864900             -0.2518300             -0.0142990
      1.1442700              0.0615890              0.3235720
      0.4203770              1.0601800              0.7435070
SP   1   1.00
      0.1426570              1.0000000              1.0000000
D    1   1.00
      1.5000000              1.0000000
D    1   1.00
      0.3750000              1.0000000
F    1   1.00
      0.7000000              1.0000000
****
}

set {
reference uhf
freeze_core true
e_convergence 10
d_convergence 10
dft_spherical_points 1202
dft_radial_points 99
}

e = energy('b3lyp')

print_out('Grab this energy {0}'.format(e))
--------------------------------------------------------------------------

    Molecular point group: c1

    Geometry (in Bohr), charge = 0, multiplicity = 2:

       Center              X                  Y                   Z               Mass
    ------------   -----------------  -----------------  -----------------  -----------------
         C            1.173848183974    -0.043036521774     0.000661256590    12.000000000000
         H            2.100311122374    -1.883579746974     0.002117632990     1.007825032230
         H            2.401085925774     1.604749175426     0.004541886290     1.007825032230
         C           -1.308305388726     0.159085354326    -0.001657258010    12.000000000000
         H           -2.900438146126    -1.102942996374     0.005199698990     1.007825032230

  Charge       = 0
  Multiplicity = 2
  Basis Set: ANONYMOUS3443BE8E
    Blend: 6-31G_2DFP_
  Basis Set: (ANONYMOUS3443BE8E AUX)
    Blend: DEF2-UNIVERSAL-JKFIT

    Orbital Energies [Eh]
    ---------------------

    Alpha Occupied:

       1A    -10.204092     2A    -10.185683     3A     -0.760652
       4A     -0.574016     5A     -0.457702     6A     -0.426033
       7A     -0.278370     8A     -0.234679

    Alpha Virtual:

       9A      0.012337    10A      0.117845    11A      0.122912
      12A      0.184076    13A      0.305885    14A      0.413346
      15A      0.458152    16A      0.473661    17A      0.490585
      18A      0.512162    19A      0.514212    20A      0.592261
      21A      0.595837    22A      0.639075    23A      0.654682
      24A      0.670049    25A      0.707006    26A      0.734258
      27A      0.859168    28A      0.913157    29A      0.976025
      30A      0.987750    31A      1.044060    32A      1.048616
      33A      1.153747    34A      1.193928    35A      1.249191
      36A      1.329262    37A      1.473519    38A      1.544106
      39A      1.605950    40A      1.736808    41A      1.811602
      42A      1.995780    43A      2.322129    44A      2.649385
      45A      2.723980    46A      2.771699    47A      2.810152
      48A      2.850574    49A      2.868871    50A      2.954989
      51A      3.045870    52A      3.103520    53A      3.107649
      54A      3.142836    55A      3.174365    56A      3.192259
      57A      3.256559    58A      3.324282    59A      3.388339
      60A      3.398282    61A      3.570452    62A      3.651238
      63A      3.770412    64A      4.021402    65A      4.058340
      66A      4.149881    67A      4.200901    68A      4.244758
      69A      4.249984    70A      4.417528    71A      4.501275
      72A      4.533034    73A      4.771720    74A      5.097216
      75A      5.190746    76A      5.414740

    Beta Occupied:

       1A    -10.188840     2A    -10.187197     3A     -0.743381
       4A     -0.552446     5A     -0.442776     6A     -0.412182
       7A     -0.270457

    Beta Virtual:

       8A     -0.067823     9A      0.024209    10A      0.120516
      11A      0.133317    12A      0.189780    13A      0.315704
      14A      0.422713    15A      0.475838    16A      0.482673
      17A      0.494549    18A      0.520324    19A      0.564879
      20A      0.601280    21A      0.613014    22A      0.645652
      23A      0.663052    24A      0.685521    25A      0.720264
      26A      0.756776    27A      0.876795    28A      0.930946
      29A      0.979456    30A      0.993163    31A      1.052318
      32A      1.053304    33A      1.163646    34A      1.201911
      35A      1.266896    36A      1.337995    37A      1.487718
      38A      1.551725    39A      1.614863    40A      1.753722
      41A      1.827276    42A      2.010047    43A      2.344622
      44A      2.660998    45A      2.752459    46A      2.791147
      47A      2.852557    48A      2.861735    49A      2.879881
      50A      2.973583    51A      3.048552    52A      3.115501
      53A      3.120185    54A      3.161689    55A      3.209355
      56A      3.226883    57A      3.288768    58A      3.348958
      59A      3.402511    60A      3.432416    61A      3.589756
      62A      3.667526    63A      3.795299    64A      4.035383
      65A      4.067357    66A      4.158512    67A      4.212453
      68A      4.252776    69A      4.266660    70A      4.428066
      71A      4.523989    72A      4.558637    73A      4.786271
      74A      5.109270    75A      5.201791    76A      5.426576

    Final Occupation by Irrep:
              A
    DOCC [     7 ]
    SOCC [     1 ]

  @DF-UKS Final Energy:   -77.90778825200309

   => Energetics <=

    Nuclear Repulsion Energy =             28.3344165469497256
    One-Electron Energy =                -159.6361887898325449
    Two-Electron Energy =                  63.0204589319278341
    DFT Exchange-Correlation Energy =      -9.6264749410481105
    Empirical Dispersion Energy =           0.0000000000000000
    VV10 Nonlocal Energy =                  0.0000000000000000
    Total Energy =                        -77.9077882520030869

  UHF NO Occupations:
  HONO-2 :    6  A 1.9992658
  HONO-1 :    7  A 1.9956479
  HONO-0 :    8  A 1.0000000
  LUNO+0 :    9  A 0.0043521
  LUNO+1 :   10  A 0.0007342
  LUNO+2 :   11  A 0.0002337
  LUNO+3 :   12  A 0.0001342

Computation Completed

Properties will be evaluated at   0.000000,   0.000000,   0.000000 [a0]

Properties computed using the SCF density matrix

  Nuclear Dipole Moment: [e a0]
     X:     0.7942      Y:    -0.6855      Z:     0.0059

  Electronic Dipole Moment: [e a0]
     X:    -0.7088      Y:     0.4683      Z:    -0.0039

  Dipole Moment: [e a0]
     X:     0.0854      Y:    -0.2171      Z:     0.0020     Total:     0.2333

  Dipole Moment: [D]
     X:     0.2172      Y:    -0.5519      Z:     0.0050     Total:     0.5931

*** tstop() called on n049 at Thu Nov  4 14:39:22 2021
Module time:
	user time   =      34.16 seconds =       0.57 minutes
	system time =       0.40 seconds =       0.01 minutes
	total time  =         34 seconds =       0.57 minutes
Total time:
	user time   =      34.16 seconds =       0.57 minutes
	system time =       0.40 seconds =       0.01 minutes
	total time  =         34 seconds =       0.57 minutes
Grab this energy -77.90778825200309
    Psi4 stopped on: Thursday, 04 November 2021 02:39PM
    Psi4 wall time for execution: 0:00:34.61

*** Psi4 exiting successfully. Buy a developer a beer!
