                               Psi4 1.4a2.dev629

  ==> Input File <==

--------------------------------------------------------------------------
import os
memory 14 GB

molecule {
 C    1.1731589142   -0.0465602729    0.0000000000
 H    2.0938552670   -1.8850629338    0.0000000000
 H    2.3872979681    1.6028535531    0.0000000000
 C   -1.2988226008    0.1556859864    0.0000000000
 H   -2.9005152084   -1.1007941128   -0.0000000000
units bohr
0 2
}

basis {

assign 6-31g_2dfp_

[ 6-31g_2dfp_ ]

spherical

!----------------------------------------------------------------------
! Basis Set Exchange
! Version v0.8.13
! https://www.basissetexchange.org
!----------------------------------------------------------------------
!   Basis set: 6-31G(2df,p)
! Description: 6-31G(2df,p)
!        Role: orbital
!     Version: 0  (Data from the original Basis Set Exchange)
!----------------------------------------------------------------------

****
H     0
S    3   1.00
     18.7311370              0.03349460
      2.8253937              0.23472695
      0.6401217              0.81375733
S    1   1.00
      0.1612778              1.00000000
P    1   1.00
      1.5000000              1.0000000
P    1   1.00
      0.3750000              1.0000000
****
B     0
S    6   1.00
   2068.8823000              0.0018663
    310.6495700              0.0142515
     70.6830330              0.0695516
     19.8610800              0.2325729
      6.2993048              0.4670787
      2.1270270              0.3634314
SP   3   1.00
      4.7279710             -0.1303938              0.0745976
      1.1903377             -0.1307889              0.3078467
      0.3594117              1.1309444              0.7434568
SP   1   1.00
      0.1267512              1.0000000              1.0000000
D    1   1.00
      0.8020000              1.0000000
D    1   1.00
      0.2005000              1.0000000
F    1   1.00
      0.5000000              1.0000000
****
C     0
S    6   1.00
   3047.5249000              0.0018347
    457.3695100              0.0140373
    103.9486900              0.0688426
     29.2101550              0.2321844
      9.2866630              0.4679413
      3.1639270              0.3623120
SP   3   1.00
      7.8682724             -0.1193324              0.0689991
      1.8812885             -0.1608542              0.3164240
      0.5442493              1.1434564              0.7443083
SP   1   1.00
      0.1687144              1.0000000              1.0000000
D    1   1.00
      1.2520000              1.0000000
D    1   1.00
      0.3130000              1.0000000
F    1   1.00
      0.8000000              1.0000000
****
N     0
S    6   1.00
   4173.5110000              0.0018348
    627.4579000              0.0139950
    142.9021000              0.0685870
     40.2343300              0.2322410
     12.8202100              0.4690700
      4.3904370              0.3604550
SP   3   1.00
     11.6263580             -0.1149610              0.0675800
      2.7162800             -0.1691180              0.3239070
      0.7722180              1.1458520              0.7408950
SP   1   1.00
      0.2120313              1.0000000              1.0000000
D    1   1.00
      1.8260000              1.0000000
D    1   1.00
      0.4565000              1.0000000
F    1   1.00
      1.0000000              1.0000000
****
O     0
S    6   1.00
   5484.6717000              0.0018311
    825.2349500              0.0139501
    188.0469600              0.0684451
     52.9645000              0.2327143
     16.8975700              0.4701930
      5.7996353              0.3585209
SP   3   1.00
     15.5396160             -0.1107775              0.0708743
      3.5999336             -0.1480263              0.3397528
      1.0137618              1.1307670              0.7271586
SP   1   1.00
      0.2700058              1.0000000              1.0000000
D    1   1.00
      2.5840000              1.0000000
D    1   1.00
      0.6460000              1.0000000
F    1   1.00
      1.4000000              1.0000000
****
F     0
S    6   1.00
   7001.7130900              0.0018196169
   1051.3660900              0.0139160796
    239.2856900              0.0684053245
     67.3974453              0.233185760
     21.5199573              0.471267439
      7.40310130             0.356618546
SP   3   1.00
     20.8479528             -0.108506975            0.0716287243
      4.80830834            -0.146451658            0.3459121030
      1.34406986             1.128688580            0.7224699570
SP   1   1.00
      0.358151393            1.0000000              1.0000000
D    1   1.00
      3.5000000              1.0000000
D    1   1.00
      0.8750000              1.0000000
F    1   1.00
      1.8500000              1.0000000
****
Al     0
S    6   1.00
  13983.1000000              0.00194267
   2098.7500000              0.0148599
    477.7050000              0.0728494
    134.3600000              0.2468300
     42.8709000              0.4872580
     14.5189000              0.3234960
SP   6   1.00
    239.6680000             -0.00292619             0.00460285
     57.4419000             -0.0374080              0.0331990
     18.2859000             -0.1144870              0.1362820
      6.5991400              0.1156350              0.3304760
      2.4904900              0.6125950              0.4491460
      0.9445400              0.3937990              0.2657040
SP   3   1.00
      1.2779000             -0.2276060             -0.0175130
      0.3975900              0.00144583             0.2445330
      0.1600950              1.0927900              0.8049340
SP   1   1.00
      0.0556577              1.0000000              1.0000000
D    1   1.00
      0.6500000              1.0000000
D    1   1.00
      0.1625000              1.0000000
F    1   1.00
      0.2500000              1.0000000
****
Si     0
S    6   1.00
  16115.9000000              0.00195948
   2425.5800000              0.01492880
    553.8670000              0.07284780
    156.3400000              0.24613000
     50.0683000              0.48591400
     17.0178000              0.32500200
SP   6   1.00
    292.7180000             -0.00278094             0.00443826
     69.8731000             -0.03571460             0.03266790
     22.3363000             -0.11498500             0.13472100
      8.1503900              0.09356340             0.32867800
      3.1345800              0.60301700             0.44964000
      1.2254300              0.41895900             0.26137200
SP   3   1.00
      1.7273800             -0.24463000            -0.01779510
      0.5729220              0.00431572             0.25353900
      0.2221920              1.09818000             0.80066900
SP   1   1.00
      0.0778369              1.00000000             1.00000000
D    1   1.00
      0.9000000              1.0000000
D    1   1.00
      0.2250000              1.0000000
F    1   1.00
      0.3200000              1.0000000
****
P     0
S    6   1.00
  19413.3000000              0.0018516
   2909.4200000              0.0142062
    661.3640000              0.0699995
    185.7590000              0.2400790
     59.1943000              0.4847620
     20.0310000              0.3352000
SP   6   1.00
    339.4780000             -0.00278217             0.00456462
     81.0101000             -0.0360499              0.03369360
     25.8780000             -0.1166310              0.13975500
      9.4522100              0.0968328              0.33936200
      3.6656600              0.6144180              0.45092100
      1.4674600              0.4037980              0.23858600
SP   3   1.00
      2.1562300             -0.2529230             -0.01776530
      0.7489970              0.0328517              0.27405800
      0.2831450              1.0812500              0.78542100
SP   1   1.00
      0.0998317              1.0000000              1.00000000
D    1   1.00
      1.1000000              1.0000000
D    1   1.00
      0.2750000              1.0000000
F    1   1.00
      0.4500000              1.0000000
****
S     0
S    6   1.00
  21917.1000000              0.0018690
   3301.4900000              0.0142300
    754.1460000              0.0696960
    212.7110000              0.2384870
     67.9896000              0.4833070
     23.0515000              0.3380740
SP   6   1.00
    423.7350000             -0.0023767              0.0040610
    100.7100000             -0.0316930              0.0306810
     32.1599000             -0.1133170              0.1304520
     11.8079000              0.0560900              0.3272050
      4.6311000              0.5922550              0.4528510
      1.8702500              0.4550060              0.2560420
SP   3   1.00
      2.6158400             -0.2503740             -0.0145110
      0.9221670              0.0669570              0.3102630
      0.3412870              1.0545100              0.7544830
SP   1   1.00
      0.1171670              1.0000000              1.0000000
D    1   1.00
      1.3000000              1.0000000
D    1   1.00
      0.3250000              1.0000000
F    1   1.00
      0.5500000              1.0000000
****
Cl     0
S    6   1.00
  25180.1000000              0.0018330
   3780.3500000              0.0140340
    860.4740000              0.0690970
    242.1450000              0.2374520
     77.3349000              0.4830340
     26.2470000              0.3398560
SP   6   1.00
    491.7650000             -0.0022974              0.0039894
    116.9840000             -0.0307140              0.0303180
     37.4153000             -0.1125280              0.1298800
     13.7834000              0.0450160              0.3279510
      5.4521500              0.5893530              0.4535270
      2.2258800              0.4652060              0.2521540
SP   3   1.00
      3.1864900             -0.2518300             -0.0142990
      1.1442700              0.0615890              0.3235720
      0.4203770              1.0601800              0.7435070
SP   1   1.00
      0.1426570              1.0000000              1.0000000
D    1   1.00
      1.5000000              1.0000000
D    1   1.00
      0.3750000              1.0000000
F    1   1.00
      0.7000000              1.0000000
****
}

set {
reference uhf
freeze_core true
e_convergence 10
d_convergence 10
dft_spherical_points 1202
dft_radial_points 99
}

e = energy('b3lyp')

print_out('Grab this energy {0}'.format(e))
--------------------------------------------------------------------------

    Molecular point group: cs

    Geometry (in Bohr), charge = 0, multiplicity = 2:

       Center              X                  Y                   Z               Mass
    ------------   -----------------  -----------------  -----------------  -----------------
         C            1.170011934372    -0.043440134646     0.000000000000    12.000000000000
         H            2.090708287172    -1.881942795546     0.000000000000     1.007825032230
         H            2.384150988272     1.605973691354     0.000000000000     1.007825032230
         C           -1.301969580628     0.158806124654     0.000000000000    12.000000000000
         H           -2.903662188228    -1.097673974546     0.000000000000     1.007825032230

  Charge       = 0
  Multiplicity = 2
  Basis Set: ANONYMOUS345C8654
    Blend: 6-31G_2DFP_
  Basis Set: (ANONYMOUS345C8654 AUX)
    Blend: DEF2-UNIVERSAL-JKFIT

    Orbital Energies [Eh]
    ---------------------

    Alpha Occupied:

       1Ap   -10.203123     2Ap   -10.184306     3Ap    -0.762008
       4Ap    -0.573421     5Ap    -0.458568     6Ap    -0.426764
       1App   -0.279169     7Ap    -0.233708

    Alpha Virtual:

       2App    0.013658     8Ap     0.118427     9Ap     0.122904
      10Ap     0.184391    11Ap     0.306188    12Ap     0.413255
      13Ap     0.458446    14Ap     0.475332     3App    0.489878
       4App    0.511853    15Ap     0.514597    16Ap     0.593475
       5App    0.595097    17Ap     0.639893     6App    0.656079
      18Ap     0.670467    19Ap     0.708861     7App    0.735898
      20Ap     0.860834    21Ap     0.914571     8App    0.977071
      22Ap     0.985819    23Ap     1.043036     9App    1.049414
      24Ap     1.156703    10App    1.195338    25Ap     1.250701
      11App    1.332077    26Ap     1.476317    27Ap     1.545430
      28Ap     1.611796    29Ap     1.738304    30Ap     1.817139
      31Ap     2.002154    32Ap     2.325443    12App    2.650848
      13App    2.725394    33Ap     2.772547    34Ap     2.810901
      14App    2.850615    35Ap     2.870755    36Ap     2.949993
      15App    3.045556    37Ap     3.102900    16App    3.105268
      17App    3.139079    18App    3.174090    38Ap     3.194196
      39Ap     3.259064    40Ap     3.325247    41Ap     3.391480
      42Ap     3.404304    19App    3.573598    20App    3.656699
      43Ap     3.775778    44Ap     4.020961    21App    4.062495
      22App    4.153508    45Ap     4.213291    46Ap     4.251227
      23App    4.255873    24App    4.419120    47Ap     4.510955
      48Ap     4.528178    49Ap     4.775918    50Ap     5.105090
      51Ap     5.201092    52Ap     5.420083

    Beta Occupied:

       1Ap   -10.187897     2Ap   -10.185816     3Ap    -0.744772
       4Ap    -0.551797     5Ap    -0.443484     6Ap    -0.412899
       1App   -0.271268

    Beta Virtual:

       7Ap    -0.067097     2App    0.025496     8Ap     0.121215
       9Ap     0.133267    10Ap     0.190067    11Ap     0.315818
      12Ap     0.422612    13Ap     0.477082    14Ap     0.483886
       3App    0.493843     4App    0.520087    15Ap     0.564842
       5App    0.600477    16Ap     0.614503    17Ap     0.646518
       6App    0.664504    18Ap     0.685656    19Ap     0.721975
       7App    0.758394    20Ap     0.878550    21Ap     0.932394
       8App    0.980553    22Ap     0.991182    23Ap     1.051566
       9App    1.054009    24Ap     1.166675    10App    1.203412
      25Ap     1.268546    11App    1.340731    26Ap     1.490588
      27Ap     1.553011    28Ap     1.620521    29Ap     1.754866
      30Ap     1.833334    31Ap     2.016465    32Ap     2.347891
      12App    2.662537    13App    2.753962    33Ap     2.792108
      34Ap     2.853752    14App    2.861581    35Ap     2.881104
      36Ap     2.968930    15App    3.048226    16App    3.113307
      37Ap     3.119613    17App    3.157338    38Ap     3.211465
      18App    3.227016    39Ap     3.291894    40Ap     3.350039
      41Ap     3.406795    42Ap     3.436270    19App    3.592893
      20App    3.673003    43Ap     3.800525    44Ap     4.034868
      21App    4.071585    22App    4.162099    45Ap     4.224464
      23App    4.263683    46Ap     4.268520    24App    4.429672
      47Ap     4.533005    48Ap     4.554246    49Ap     4.790591
      50Ap     5.117229    51Ap     5.212210    52Ap     5.431931

    Final Occupation by Irrep:
             Ap   App
    DOCC [     6,    1 ]
    SOCC [     1,    0 ]

  @DF-UKS Final Energy:   -77.90787586234269

   => Energetics <=

    Nuclear Repulsion Energy =             28.4180847187492738
    One-Electron Energy =                -159.8004966156118485
    Two-Electron Energy =                  63.1049358952631039
    DFT Exchange-Correlation Energy =      -9.6303998607432071
    Empirical Dispersion Energy =           0.0000000000000000
    VV10 Nonlocal Energy =                  0.0000000000000000
    Total Energy =                        -77.9078758623426779

  UHF NO Occupations:
  HONO-2 :    6 Ap 1.9992664
  HONO-1 :    1App 1.9958275
  HONO-0 :    7 Ap 1.0000000
  LUNO+0 :    2App 0.0041725
  LUNO+1 :    8 Ap 0.0007336
  LUNO+2 :    9 Ap 0.0002322
  LUNO+3 :   10 Ap 0.0001323

Computation Completed

Properties will be evaluated at   0.000000,   0.000000,   0.000000 [a0]

Properties computed using the SCF density matrix

  Nuclear Dipole Moment: [e a0]
     X:     0.7795      Y:    -0.6814      Z:     0.0000

  Electronic Dipole Moment: [e a0]
     X:    -0.6954      Y:     0.4652      Z:     0.0000

  Dipole Moment: [e a0]
     X:     0.0841      Y:    -0.2163      Z:     0.0000     Total:     0.2320

  Dipole Moment: [D]
     X:     0.2137      Y:    -0.5497      Z:     0.0000     Total:     0.5898

*** tstop() called on n040 at Thu Nov  4 14:41:18 2021
Module time:
	user time   =      41.14 seconds =       0.69 minutes
	system time =       0.31 seconds =       0.01 minutes
	total time  =         41 seconds =       0.68 minutes
Total time:
	user time   =      41.14 seconds =       0.69 minutes
	system time =       0.31 seconds =       0.01 minutes
	total time  =         41 seconds =       0.68 minutes
Grab this energy -77.90787586234269
    Psi4 stopped on: Thursday, 04 November 2021 02:41PM
    Psi4 wall time for execution: 0:00:41.50

*** Psi4 exiting successfully. Buy a developer a beer!
