                               Psi4 1.4a2.dev629

  ==> Input File <==

--------------------------------------------------------------------------
import os
memory 14 GB

molecule {
 C    1.1779816984   -0.0432175457   -0.0000000000
 H    2.0961484647   -1.8854846596   -0.0000000000
 H    2.3955475749    1.6017062427   -0.0000000000
 C   -1.3097335587    0.1597041671   -0.0000000000
 H   -2.9049698392   -1.1065859845   -0.0000000000
units bohr
0 2
}

basis {

assign 6-31g_2dfp_

[ 6-31g_2dfp_ ]

spherical

!----------------------------------------------------------------------
! Basis Set Exchange
! Version v0.8.13
! https://www.basissetexchange.org
!----------------------------------------------------------------------
!   Basis set: 6-31G(2df,p)
! Description: 6-31G(2df,p)
!        Role: orbital
!     Version: 0  (Data from the original Basis Set Exchange)
!----------------------------------------------------------------------

****
H     0
S    3   1.00
     18.7311370              0.03349460
      2.8253937              0.23472695
      0.6401217              0.81375733
S    1   1.00
      0.1612778              1.00000000
P    1   1.00
      1.5000000              1.0000000
P    1   1.00
      0.3750000              1.0000000
****
B     0
S    6   1.00
   2068.8823000              0.0018663
    310.6495700              0.0142515
     70.6830330              0.0695516
     19.8610800              0.2325729
      6.2993048              0.4670787
      2.1270270              0.3634314
SP   3   1.00
      4.7279710             -0.1303938              0.0745976
      1.1903377             -0.1307889              0.3078467
      0.3594117              1.1309444              0.7434568
SP   1   1.00
      0.1267512              1.0000000              1.0000000
D    1   1.00
      0.8020000              1.0000000
D    1   1.00
      0.2005000              1.0000000
F    1   1.00
      0.5000000              1.0000000
****
C     0
S    6   1.00
   3047.5249000              0.0018347
    457.3695100              0.0140373
    103.9486900              0.0688426
     29.2101550              0.2321844
      9.2866630              0.4679413
      3.1639270              0.3623120
SP   3   1.00
      7.8682724             -0.1193324              0.0689991
      1.8812885             -0.1608542              0.3164240
      0.5442493              1.1434564              0.7443083
SP   1   1.00
      0.1687144              1.0000000              1.0000000
D    1   1.00
      1.2520000              1.0000000
D    1   1.00
      0.3130000              1.0000000
F    1   1.00
      0.8000000              1.0000000
****
N     0
S    6   1.00
   4173.5110000              0.0018348
    627.4579000              0.0139950
    142.9021000              0.0685870
     40.2343300              0.2322410
     12.8202100              0.4690700
      4.3904370              0.3604550
SP   3   1.00
     11.6263580             -0.1149610              0.0675800
      2.7162800             -0.1691180              0.3239070
      0.7722180              1.1458520              0.7408950
SP   1   1.00
      0.2120313              1.0000000              1.0000000
D    1   1.00
      1.8260000              1.0000000
D    1   1.00
      0.4565000              1.0000000
F    1   1.00
      1.0000000              1.0000000
****
O     0
S    6   1.00
   5484.6717000              0.0018311
    825.2349500              0.0139501
    188.0469600              0.0684451
     52.9645000              0.2327143
     16.8975700              0.4701930
      5.7996353              0.3585209
SP   3   1.00
     15.5396160             -0.1107775              0.0708743
      3.5999336             -0.1480263              0.3397528
      1.0137618              1.1307670              0.7271586
SP   1   1.00
      0.2700058              1.0000000              1.0000000
D    1   1.00
      2.5840000              1.0000000
D    1   1.00
      0.6460000              1.0000000
F    1   1.00
      1.4000000              1.0000000
****
F     0
S    6   1.00
   7001.7130900              0.0018196169
   1051.3660900              0.0139160796
    239.2856900              0.0684053245
     67.3974453              0.233185760
     21.5199573              0.471267439
      7.40310130             0.356618546
SP   3   1.00
     20.8479528             -0.108506975            0.0716287243
      4.80830834            -0.146451658            0.3459121030
      1.34406986             1.128688580            0.7224699570
SP   1   1.00
      0.358151393            1.0000000              1.0000000
D    1   1.00
      3.5000000              1.0000000
D    1   1.00
      0.8750000              1.0000000
F    1   1.00
      1.8500000              1.0000000
****
Al     0
S    6   1.00
  13983.1000000              0.00194267
   2098.7500000              0.0148599
    477.7050000              0.0728494
    134.3600000              0.2468300
     42.8709000              0.4872580
     14.5189000              0.3234960
SP   6   1.00
    239.6680000             -0.00292619             0.00460285
     57.4419000             -0.0374080              0.0331990
     18.2859000             -0.1144870              0.1362820
      6.5991400              0.1156350              0.3304760
      2.4904900              0.6125950              0.4491460
      0.9445400              0.3937990              0.2657040
SP   3   1.00
      1.2779000             -0.2276060             -0.0175130
      0.3975900              0.00144583             0.2445330
      0.1600950              1.0927900              0.8049340
SP   1   1.00
      0.0556577              1.0000000              1.0000000
D    1   1.00
      0.6500000              1.0000000
D    1   1.00
      0.1625000              1.0000000
F    1   1.00
      0.2500000              1.0000000
****
Si     0
S    6   1.00
  16115.9000000              0.00195948
   2425.5800000              0.01492880
    553.8670000              0.07284780
    156.3400000              0.24613000
     50.0683000              0.48591400
     17.0178000              0.32500200
SP   6   1.00
    292.7180000             -0.00278094             0.00443826
     69.8731000             -0.03571460             0.03266790
     22.3363000             -0.11498500             0.13472100
      8.1503900              0.09356340             0.32867800
      3.1345800              0.60301700             0.44964000
      1.2254300              0.41895900             0.26137200
SP   3   1.00
      1.7273800             -0.24463000            -0.01779510
      0.5729220              0.00431572             0.25353900
      0.2221920              1.09818000             0.80066900
SP   1   1.00
      0.0778369              1.00000000             1.00000000
D    1   1.00
      0.9000000              1.0000000
D    1   1.00
      0.2250000              1.0000000
F    1   1.00
      0.3200000              1.0000000
****
P     0
S    6   1.00
  19413.3000000              0.0018516
   2909.4200000              0.0142062
    661.3640000              0.0699995
    185.7590000              0.2400790
     59.1943000              0.4847620
     20.0310000              0.3352000
SP   6   1.00
    339.4780000             -0.00278217             0.00456462
     81.0101000             -0.0360499              0.03369360
     25.8780000             -0.1166310              0.13975500
      9.4522100              0.0968328              0.33936200
      3.6656600              0.6144180              0.45092100
      1.4674600              0.4037980              0.23858600
SP   3   1.00
      2.1562300             -0.2529230             -0.01776530
      0.7489970              0.0328517              0.27405800
      0.2831450              1.0812500              0.78542100
SP   1   1.00
      0.0998317              1.0000000              1.00000000
D    1   1.00
      1.1000000              1.0000000
D    1   1.00
      0.2750000              1.0000000
F    1   1.00
      0.4500000              1.0000000
****
S     0
S    6   1.00
  21917.1000000              0.0018690
   3301.4900000              0.0142300
    754.1460000              0.0696960
    212.7110000              0.2384870
     67.9896000              0.4833070
     23.0515000              0.3380740
SP   6   1.00
    423.7350000             -0.0023767              0.0040610
    100.7100000             -0.0316930              0.0306810
     32.1599000             -0.1133170              0.1304520
     11.8079000              0.0560900              0.3272050
      4.6311000              0.5922550              0.4528510
      1.8702500              0.4550060              0.2560420
SP   3   1.00
      2.6158400             -0.2503740             -0.0145110
      0.9221670              0.0669570              0.3102630
      0.3412870              1.0545100              0.7544830
SP   1   1.00
      0.1171670              1.0000000              1.0000000
D    1   1.00
      1.3000000              1.0000000
D    1   1.00
      0.3250000              1.0000000
F    1   1.00
      0.5500000              1.0000000
****
Cl     0
S    6   1.00
  25180.1000000              0.0018330
   3780.3500000              0.0140340
    860.4740000              0.0690970
    242.1450000              0.2374520
     77.3349000              0.4830340
     26.2470000              0.3398560
SP   6   1.00
    491.7650000             -0.0022974              0.0039894
    116.9840000             -0.0307140              0.0303180
     37.4153000             -0.1125280              0.1298800
     13.7834000              0.0450160              0.3279510
      5.4521500              0.5893530              0.4535270
      2.2258800              0.4652060              0.2521540
SP   3   1.00
      3.1864900             -0.2518300             -0.0142990
      1.1442700              0.0615890              0.3235720
      0.4203770              1.0601800              0.7435070
SP   1   1.00
      0.1426570              1.0000000              1.0000000
D    1   1.00
      1.5000000              1.0000000
D    1   1.00
      0.3750000              1.0000000
F    1   1.00
      0.7000000              1.0000000
****
}

set {
reference uhf
freeze_core true
e_convergence 10
d_convergence 10
dft_spherical_points 1202
dft_radial_points 99
}

e = energy('b3lyp')

print_out('Grab this energy {0}'.format(e))
--------------------------------------------------------------------------

    Molecular point group: cs

    Geometry (in Bohr), charge = 0, multiplicity = 2:

       Center              X                  Y                   Z               Mass
    ------------   -----------------  -----------------  -----------------  -----------------
         C            1.177311168041    -0.043091559281     0.000000000000    12.000000000000
         H            2.095477934341    -1.885358673181     0.000000000000     1.007825032230
         H            2.394877044541     1.601832229119     0.000000000000     1.007825032230
         C           -1.310404089059     0.159830153519     0.000000000000    12.000000000000
         H           -2.905640369559    -1.106459998081     0.000000000000     1.007825032230

  Charge       = 0
  Multiplicity = 2
  Basis Set: ANONYMOUS22E4AD76
    Blend: 6-31G_2DFP_
  Basis Set: (ANONYMOUS22E4AD76 AUX)
    Blend: DEF2-UNIVERSAL-JKFIT

    Orbital Energies [Eh]
    ---------------------

    Alpha Occupied:

       1Ap   -10.204751     2Ap   -10.185584     3Ap    -0.760171
       4Ap    -0.574042     5Ap    -0.457479     6Ap    -0.426302
       1App   -0.277889     7Ap    -0.234999

    Alpha Virtual:

       2App    0.011693     8Ap     0.118155     9Ap     0.122722
      10Ap     0.184207    11Ap     0.304895    12Ap     0.413395
      13Ap     0.458483    14Ap     0.473480     3App    0.490940
       4App    0.512318    15Ap     0.514001    16Ap     0.592598
       5App    0.596053    17Ap     0.639744     6App    0.654601
      18Ap     0.669914    19Ap     0.705766     7App    0.734085
      20Ap     0.858796    21Ap     0.912445     8App    0.976400
      22Ap     0.986938    23Ap     1.043730     9App    1.047269
      24Ap     1.154337    10App    1.193352    25Ap     1.249107
      11App    1.328610    26Ap     1.474462    27Ap     1.541546
      28Ap     1.608165    29Ap     1.731687    30Ap     1.811486
      31Ap     1.998614    32Ap     2.319783    12App    2.649016
      13App    2.724400    33Ap     2.770887    34Ap     2.811194
      14App    2.849586    35Ap     2.869099    36Ap     2.957741
      15App    3.047105    37Ap     3.102101    16App    3.107004
      17App    3.145384    18App    3.175901    38Ap     3.191475
      39Ap     3.256255    40Ap     3.321954    41Ap     3.388376
      42Ap     3.397566    19App    3.568795    20App    3.649304
      43Ap     3.768366    44Ap     4.018362    21App    4.057010
      22App    4.149565    45Ap     4.201043    23App    4.245161
      46Ap     4.247310    24App    4.412974    47Ap     4.498395
      48Ap     4.531087    49Ap     4.775195    50Ap     5.098851
      51Ap     5.195758    52Ap     5.409706

    Beta Occupied:

       1Ap   -10.189424     2Ap   -10.187136     3Ap    -0.742987
       4Ap    -0.552370     5Ap    -0.442441     6Ap    -0.412780
       1App   -0.269969

    Beta Virtual:

       7Ap    -0.067790     2App    0.023609     8Ap     0.120927
       9Ap     0.132980    10Ap     0.189816    11Ap     0.314703
      12Ap     0.422782    13Ap     0.476306    14Ap     0.482216
       3App    0.494951     4App    0.520420    15Ap     0.564817
       5App    0.601403    16Ap     0.613448    17Ap     0.646410
       6App    0.663003    18Ap     0.685209    19Ap     0.719068
       7App    0.756668    20Ap     0.876255    21Ap     0.930253
       8App    0.979803    22Ap     0.992293     9App    1.051827
      23Ap     1.051961    24Ap     1.164277    10App    1.201382
      25Ap     1.266920    11App    1.337301    26Ap     1.488639
      27Ap     1.549148    28Ap     1.616886    29Ap     1.748591
      30Ap     1.827168    31Ap     2.012677    32Ap     2.342106
      12App    2.660575    13App    2.752948    33Ap     2.790331
      34Ap     2.853875    14App    2.861044    35Ap     2.880143
      36Ap     2.976298    15App    3.049753    16App    3.114737
      37Ap     3.118476    17App    3.164550    38Ap     3.208626
      18App    3.228312    39Ap     3.288353    40Ap     3.346442
      41Ap     3.404341    42Ap     3.430417    19App    3.588114
      20App    3.665644    43Ap     3.793206    44Ap     4.032275
      21App    4.065835    22App    4.158149    45Ap     4.212565
      23App    4.252871    46Ap     4.264392    24App    4.423416
      47Ap     4.521310    48Ap     4.556570    49Ap     4.789583
      50Ap     5.110785    51Ap     5.206616    52Ap     5.421435

    Final Occupation by Irrep:
             Ap   App
    DOCC [     6,    1 ]
    SOCC [     1,    0 ]

  @DF-UKS Final Energy:   -77.90768827076700

   => Energetics <=

    Nuclear Repulsion Energy =             28.3085257960618328
    One-Electron Energy =                -159.5848551570786640
    Two-Electron Energy =                  62.9944325254226811
    DFT Exchange-Correlation Energy =      -9.6257914351728555
    Empirical Dispersion Energy =           0.0000000000000000
    VV10 Nonlocal Energy =                  0.0000000000000000
    Total Energy =                        -77.9076882707669967

  UHF NO Occupations:
  HONO-2 :    6 Ap 1.9992708
  HONO-1 :    1App 1.9955574
  HONO-0 :    7 Ap 1.0000000
  LUNO+0 :    2App 0.0044426
  LUNO+1 :    8 Ap 0.0007292
  LUNO+2 :    9 Ap 0.0002309
  LUNO+3 :   10 Ap 0.0001351

Computation Completed

Properties will be evaluated at   0.000000,   0.000000,   0.000000 [a0]

Properties computed using the SCF density matrix

  Nuclear Dipole Moment: [e a0]
     X:     0.7862      Y:    -0.6896      Z:     0.0000

  Electronic Dipole Moment: [e a0]
     X:    -0.7010      Y:     0.4724      Z:     0.0000

  Dipole Moment: [e a0]
     X:     0.0852      Y:    -0.2171      Z:     0.0000     Total:     0.2333

  Dipole Moment: [D]
     X:     0.2165      Y:    -0.5519      Z:     0.0000     Total:     0.5929

*** tstop() called on n058 at Thu Nov  4 14:36:52 2021
Module time:
	user time   =      33.93 seconds =       0.57 minutes
	system time =       0.43 seconds =       0.01 minutes
	total time  =         35 seconds =       0.58 minutes
Total time:
	user time   =      33.93 seconds =       0.57 minutes
	system time =       0.43 seconds =       0.01 minutes
	total time  =         35 seconds =       0.58 minutes
Grab this energy -77.907688270767
    Psi4 stopped on: Thursday, 04 November 2021 02:36PM
    Psi4 wall time for execution: 0:00:34.40

*** Psi4 exiting successfully. Buy a developer a beer!
