                               Psi4 1.4a2.dev629

  ==> Input File <==

--------------------------------------------------------------------------
import os
memory 14 GB

molecule {
 C    1.1703105790   -0.0446589461    0.0000000000
 H    2.0995803644   -1.8785655056   -0.0000000000
 H    2.3977527602    1.5953880860   -0.0000000000
 C   -1.3112414689    0.1584514399    0.0000000000
 H   -2.9014278948   -1.1044928542   -0.0000000000
units bohr
0 2
}

basis {

assign 6-31g_2dfp_

[ 6-31g_2dfp_ ]

spherical

!----------------------------------------------------------------------
! Basis Set Exchange
! Version v0.8.13
! https://www.basissetexchange.org
!----------------------------------------------------------------------
!   Basis set: 6-31G(2df,p)
! Description: 6-31G(2df,p)
!        Role: orbital
!     Version: 0  (Data from the original Basis Set Exchange)
!----------------------------------------------------------------------

****
H     0
S    3   1.00
     18.7311370              0.03349460
      2.8253937              0.23472695
      0.6401217              0.81375733
S    1   1.00
      0.1612778              1.00000000
P    1   1.00
      1.5000000              1.0000000
P    1   1.00
      0.3750000              1.0000000
****
B     0
S    6   1.00
   2068.8823000              0.0018663
    310.6495700              0.0142515
     70.6830330              0.0695516
     19.8610800              0.2325729
      6.2993048              0.4670787
      2.1270270              0.3634314
SP   3   1.00
      4.7279710             -0.1303938              0.0745976
      1.1903377             -0.1307889              0.3078467
      0.3594117              1.1309444              0.7434568
SP   1   1.00
      0.1267512              1.0000000              1.0000000
D    1   1.00
      0.8020000              1.0000000
D    1   1.00
      0.2005000              1.0000000
F    1   1.00
      0.5000000              1.0000000
****
C     0
S    6   1.00
   3047.5249000              0.0018347
    457.3695100              0.0140373
    103.9486900              0.0688426
     29.2101550              0.2321844
      9.2866630              0.4679413
      3.1639270              0.3623120
SP   3   1.00
      7.8682724             -0.1193324              0.0689991
      1.8812885             -0.1608542              0.3164240
      0.5442493              1.1434564              0.7443083
SP   1   1.00
      0.1687144              1.0000000              1.0000000
D    1   1.00
      1.2520000              1.0000000
D    1   1.00
      0.3130000              1.0000000
F    1   1.00
      0.8000000              1.0000000
****
N     0
S    6   1.00
   4173.5110000              0.0018348
    627.4579000              0.0139950
    142.9021000              0.0685870
     40.2343300              0.2322410
     12.8202100              0.4690700
      4.3904370              0.3604550
SP   3   1.00
     11.6263580             -0.1149610              0.0675800
      2.7162800             -0.1691180              0.3239070
      0.7722180              1.1458520              0.7408950
SP   1   1.00
      0.2120313              1.0000000              1.0000000
D    1   1.00
      1.8260000              1.0000000
D    1   1.00
      0.4565000              1.0000000
F    1   1.00
      1.0000000              1.0000000
****
O     0
S    6   1.00
   5484.6717000              0.0018311
    825.2349500              0.0139501
    188.0469600              0.0684451
     52.9645000              0.2327143
     16.8975700              0.4701930
      5.7996353              0.3585209
SP   3   1.00
     15.5396160             -0.1107775              0.0708743
      3.5999336             -0.1480263              0.3397528
      1.0137618              1.1307670              0.7271586
SP   1   1.00
      0.2700058              1.0000000              1.0000000
D    1   1.00
      2.5840000              1.0000000
D    1   1.00
      0.6460000              1.0000000
F    1   1.00
      1.4000000              1.0000000
****
F     0
S    6   1.00
   7001.7130900              0.0018196169
   1051.3660900              0.0139160796
    239.2856900              0.0684053245
     67.3974453              0.233185760
     21.5199573              0.471267439
      7.40310130             0.356618546
SP   3   1.00
     20.8479528             -0.108506975            0.0716287243
      4.80830834            -0.146451658            0.3459121030
      1.34406986             1.128688580            0.7224699570
SP   1   1.00
      0.358151393            1.0000000              1.0000000
D    1   1.00
      3.5000000              1.0000000
D    1   1.00
      0.8750000              1.0000000
F    1   1.00
      1.8500000              1.0000000
****
Al     0
S    6   1.00
  13983.1000000              0.00194267
   2098.7500000              0.0148599
    477.7050000              0.0728494
    134.3600000              0.2468300
     42.8709000              0.4872580
     14.5189000              0.3234960
SP   6   1.00
    239.6680000             -0.00292619             0.00460285
     57.4419000             -0.0374080              0.0331990
     18.2859000             -0.1144870              0.1362820
      6.5991400              0.1156350              0.3304760
      2.4904900              0.6125950              0.4491460
      0.9445400              0.3937990              0.2657040
SP   3   1.00
      1.2779000             -0.2276060             -0.0175130
      0.3975900              0.00144583             0.2445330
      0.1600950              1.0927900              0.8049340
SP   1   1.00
      0.0556577              1.0000000              1.0000000
D    1   1.00
      0.6500000              1.0000000
D    1   1.00
      0.1625000              1.0000000
F    1   1.00
      0.2500000              1.0000000
****
Si     0
S    6   1.00
  16115.9000000              0.00195948
   2425.5800000              0.01492880
    553.8670000              0.07284780
    156.3400000              0.24613000
     50.0683000              0.48591400
     17.0178000              0.32500200
SP   6   1.00
    292.7180000             -0.00278094             0.00443826
     69.8731000             -0.03571460             0.03266790
     22.3363000             -0.11498500             0.13472100
      8.1503900              0.09356340             0.32867800
      3.1345800              0.60301700             0.44964000
      1.2254300              0.41895900             0.26137200
SP   3   1.00
      1.7273800             -0.24463000            -0.01779510
      0.5729220              0.00431572             0.25353900
      0.2221920              1.09818000             0.80066900
SP   1   1.00
      0.0778369              1.00000000             1.00000000
D    1   1.00
      0.9000000              1.0000000
D    1   1.00
      0.2250000              1.0000000
F    1   1.00
      0.3200000              1.0000000
****
P     0
S    6   1.00
  19413.3000000              0.0018516
   2909.4200000              0.0142062
    661.3640000              0.0699995
    185.7590000              0.2400790
     59.1943000              0.4847620
     20.0310000              0.3352000
SP   6   1.00
    339.4780000             -0.00278217             0.00456462
     81.0101000             -0.0360499              0.03369360
     25.8780000             -0.1166310              0.13975500
      9.4522100              0.0968328              0.33936200
      3.6656600              0.6144180              0.45092100
      1.4674600              0.4037980              0.23858600
SP   3   1.00
      2.1562300             -0.2529230             -0.01776530
      0.7489970              0.0328517              0.27405800
      0.2831450              1.0812500              0.78542100
SP   1   1.00
      0.0998317              1.0000000              1.00000000
D    1   1.00
      1.1000000              1.0000000
D    1   1.00
      0.2750000              1.0000000
F    1   1.00
      0.4500000              1.0000000
****
S     0
S    6   1.00
  21917.1000000              0.0018690
   3301.4900000              0.0142300
    754.1460000              0.0696960
    212.7110000              0.2384870
     67.9896000              0.4833070
     23.0515000              0.3380740
SP   6   1.00
    423.7350000             -0.0023767              0.0040610
    100.7100000             -0.0316930              0.0306810
     32.1599000             -0.1133170              0.1304520
     11.8079000              0.0560900              0.3272050
      4.6311000              0.5922550              0.4528510
      1.8702500              0.4550060              0.2560420
SP   3   1.00
      2.6158400             -0.2503740             -0.0145110
      0.9221670              0.0669570              0.3102630
      0.3412870              1.0545100              0.7544830
SP   1   1.00
      0.1171670              1.0000000              1.0000000
D    1   1.00
      1.3000000              1.0000000
D    1   1.00
      0.3250000              1.0000000
F    1   1.00
      0.5500000              1.0000000
****
Cl     0
S    6   1.00
  25180.1000000              0.0018330
   3780.3500000              0.0140340
    860.4740000              0.0690970
    242.1450000              0.2374520
     77.3349000              0.4830340
     26.2470000              0.3398560
SP   6   1.00
    491.7650000             -0.0022974              0.0039894
    116.9840000             -0.0307140              0.0303180
     37.4153000             -0.1125280              0.1298800
     13.7834000              0.0450160              0.3279510
      5.4521500              0.5893530              0.4535270
      2.2258800              0.4652060              0.2521540
SP   3   1.00
      3.1864900             -0.2518300             -0.0142990
      1.1442700              0.0615890              0.3235720
      0.4203770              1.0601800              0.7435070
SP   1   1.00
      0.1426570              1.0000000              1.0000000
D    1   1.00
      1.5000000              1.0000000
D    1   1.00
      0.3750000              1.0000000
F    1   1.00
      0.7000000              1.0000000
****
}

set {
reference uhf
freeze_core true
e_convergence 10
d_convergence 10
dft_spherical_points 1202
dft_radial_points 99
}

e = energy('b3lyp')

print_out('Grab this energy {0}'.format(e))
--------------------------------------------------------------------------

    Molecular point group: cs

    Geometry (in Bohr), charge = 0, multiplicity = 2:

       Center              X                  Y                   Z               Mass
    ------------   -----------------  -----------------  -----------------  -----------------
         C            1.173373746814    -0.043437085747     0.000000000000    12.000000000000
         H            2.102643532214    -1.877343645247     0.000000000000     1.007825032230
         H            2.400815928014     1.596609946353     0.000000000000     1.007825032230
         C           -1.308178301086     0.159673300253     0.000000000000    12.000000000000
         H           -2.898364726986    -1.103270993847     0.000000000000     1.007825032230

  Charge       = 0
  Multiplicity = 2
  Basis Set: ANONYMOUS8F248C81
    Blend: 6-31G_2DFP_
  Basis Set: (ANONYMOUS8F248C81 AUX)
    Blend: DEF2-UNIVERSAL-JKFIT

    Orbital Energies [Eh]
    ---------------------

    Alpha Occupied:

       1Ap   -10.204061     2Ap   -10.185097     3Ap    -0.760877
       4Ap    -0.574623     5Ap    -0.458063     6Ap    -0.426300
       1App   -0.278421     7Ap    -0.234832

    Alpha Virtual:

       2App    0.012342     8Ap     0.118569     9Ap     0.123313
      10Ap     0.184473    11Ap     0.306263    12Ap     0.413617
      13Ap     0.458101    14Ap     0.474032     3App    0.490570
       4App    0.512595    15Ap     0.514495    16Ap     0.592663
       5App    0.595931    17Ap     0.639869     6App    0.654884
      18Ap     0.670531    19Ap     0.707561     7App    0.734077
      20Ap     0.859638    21Ap     0.912794     8App    0.977024
      22Ap     0.989124    23Ap     1.045607     9App    1.050001
      24Ap     1.154126    10App    1.194137    25Ap     1.249518
      11App    1.329622    26Ap     1.475166    27Ap     1.544792
      28Ap     1.610154    29Ap     1.738720    30Ap     1.812627
      31Ap     1.999491    32Ap     2.324767    12App    2.649151
      13App    2.724671    33Ap     2.771744    34Ap     2.810377
      14App    2.851029    35Ap     2.868521    36Ap     2.953345
      15App    3.045549    37Ap     3.102960    16App    3.105685
      17App    3.143616    18App    3.173863    38Ap     3.192876
      39Ap     3.257904    40Ap     3.325050    41Ap     3.389370
      42Ap     3.399072    19App    3.570640    20App    3.651469
      43Ap     3.770772    44Ap     4.027745    21App    4.060051
      22App    4.153483    45Ap     4.200956    23App    4.246568
      46Ap     4.253161    24App    4.422264    47Ap     4.502472
      48Ap     4.533183    49Ap     4.777856    50Ap     5.101901
      51Ap     5.200163    52Ap     5.417104

    Beta Occupied:

       1Ap   -10.188772     2Ap   -10.186635     3Ap    -0.743648
       4Ap    -0.553026     5Ap    -0.443180     6Ap    -0.412393
       1App   -0.270500

    Beta Virtual:

       7Ap    -0.067899     2App    0.024229     8Ap     0.121277
       9Ap     0.133653    10Ap     0.190168    11Ap     0.316118
      12Ap     0.423008    13Ap     0.475844    14Ap     0.482931
       3App    0.494531     4App    0.520800    15Ap     0.565246
       5App    0.601376    16Ap     0.613501    17Ap     0.646558
       6App    0.663166    18Ap     0.685809    19Ap     0.720724
       7App    0.756589    20Ap     0.877231    21Ap     0.930641
       8App    0.980423    22Ap     0.994603    23Ap     1.053874
       9App    1.054756    24Ap     1.163916    10App    1.202099
      25Ap     1.267242    11App    1.338384    26Ap     1.489378
      27Ap     1.552410    28Ap     1.619231    29Ap     1.755718
      30Ap     1.828131    31Ap     2.013777    32Ap     2.347321
      12App    2.660783    13App    2.753148    33Ap     2.791127
      34Ap     2.852642    14App    2.862198    35Ap     2.879580
      36Ap     2.971978    15App    3.048205    16App    3.113465
      37Ap     3.119807    17App    3.162479    38Ap     3.209971
      18App    3.226519    39Ap     3.289974    40Ap     3.349449
      41Ap     3.404490    42Ap     3.432406    19App    3.590008
      20App    3.667792    43Ap     3.795799    44Ap     4.041862
      21App    4.069028    22App    4.162167    45Ap     4.212497
      23App    4.254302    46Ap     4.270007    24App    4.432792
      47Ap     4.525226    48Ap     4.558739    49Ap     4.792404
      50Ap     5.113958    51Ap     5.211147    52Ap     5.428957

    Final Occupation by Irrep:
             Ap   App
    DOCC [     6,    1 ]
    SOCC [     1,    0 ]

  @DF-UKS Final Energy:   -77.90777869621331

   => Energetics <=

    Nuclear Repulsion Energy =             28.3580583117651805
    One-Electron Energy =                -159.6801684056840713
    Two-Electron Energy =                  63.0427539046294214
    DFT Exchange-Correlation Energy =      -9.6284225069238438
    Empirical Dispersion Energy =           0.0000000000000000
    VV10 Nonlocal Energy =                  0.0000000000000000
    Total Energy =                        -77.9077786962133132

  UHF NO Occupations:
  HONO-2 :    6 Ap 1.9992686
  HONO-1 :    1App 1.9956523
  HONO-0 :    7 Ap 1.0000000
  LUNO+0 :    2App 0.0043477
  LUNO+1 :    8 Ap 0.0007314
  LUNO+2 :    9 Ap 0.0002324
  LUNO+3 :   10 Ap 0.0001342

Computation Completed

Properties will be evaluated at   0.000000,   0.000000,   0.000000 [a0]

Properties computed using the SCF density matrix

  Nuclear Dipole Moment: [e a0]
     X:     0.7963      Y:    -0.6866      Z:     0.0000

  Electronic Dipole Moment: [e a0]
     X:    -0.7095      Y:     0.4692      Z:     0.0000

  Dipole Moment: [e a0]
     X:     0.0868      Y:    -0.2174      Z:     0.0000     Total:     0.2340

  Dipole Moment: [D]
     X:     0.2206      Y:    -0.5525      Z:     0.0000     Total:     0.5949

*** tstop() called on n056 at Thu Nov  4 14:40:21 2021
Module time:
	user time   =      33.99 seconds =       0.57 minutes
	system time =       0.37 seconds =       0.01 minutes
	total time  =         34 seconds =       0.57 minutes
Total time:
	user time   =      33.99 seconds =       0.57 minutes
	system time =       0.37 seconds =       0.01 minutes
	total time  =         34 seconds =       0.57 minutes
Grab this energy -77.90777869621331
    Psi4 stopped on: Thursday, 04 November 2021 02:40PM
    Psi4 wall time for execution: 0:00:34.40

*** Psi4 exiting successfully. Buy a developer a beer!
