                               Psi4 1.4a2.dev629

  ==> Input File <==

--------------------------------------------------------------------------
import os
memory 14 GB

molecule {
 C    1.1750774738   -0.0434793599    0.0015104888
 H    2.0956752422   -1.8922638039    0.0000567588
 H    2.3977676895    1.6098103167   -0.0023734882
 C   -1.3065860796    0.1592635153    0.0038408038
 H   -2.9069599859   -1.1072084482   -0.0030345631
units bohr
0 2
}

basis {

assign 6-31g_2dfp_

[ 6-31g_2dfp_ ]

spherical

!----------------------------------------------------------------------
! Basis Set Exchange
! Version v0.8.13
! https://www.basissetexchange.org
!----------------------------------------------------------------------
!   Basis set: 6-31G(2df,p)
! Description: 6-31G(2df,p)
!        Role: orbital
!     Version: 0  (Data from the original Basis Set Exchange)
!----------------------------------------------------------------------

****
H     0
S    3   1.00
     18.7311370              0.03349460
      2.8253937              0.23472695
      0.6401217              0.81375733
S    1   1.00
      0.1612778              1.00000000
P    1   1.00
      1.5000000              1.0000000
P    1   1.00
      0.3750000              1.0000000
****
B     0
S    6   1.00
   2068.8823000              0.0018663
    310.6495700              0.0142515
     70.6830330              0.0695516
     19.8610800              0.2325729
      6.2993048              0.4670787
      2.1270270              0.3634314
SP   3   1.00
      4.7279710             -0.1303938              0.0745976
      1.1903377             -0.1307889              0.3078467
      0.3594117              1.1309444              0.7434568
SP   1   1.00
      0.1267512              1.0000000              1.0000000
D    1   1.00
      0.8020000              1.0000000
D    1   1.00
      0.2005000              1.0000000
F    1   1.00
      0.5000000              1.0000000
****
C     0
S    6   1.00
   3047.5249000              0.0018347
    457.3695100              0.0140373
    103.9486900              0.0688426
     29.2101550              0.2321844
      9.2866630              0.4679413
      3.1639270              0.3623120
SP   3   1.00
      7.8682724             -0.1193324              0.0689991
      1.8812885             -0.1608542              0.3164240
      0.5442493              1.1434564              0.7443083
SP   1   1.00
      0.1687144              1.0000000              1.0000000
D    1   1.00
      1.2520000              1.0000000
D    1   1.00
      0.3130000              1.0000000
F    1   1.00
      0.8000000              1.0000000
****
N     0
S    6   1.00
   4173.5110000              0.0018348
    627.4579000              0.0139950
    142.9021000              0.0685870
     40.2343300              0.2322410
     12.8202100              0.4690700
      4.3904370              0.3604550
SP   3   1.00
     11.6263580             -0.1149610              0.0675800
      2.7162800             -0.1691180              0.3239070
      0.7722180              1.1458520              0.7408950
SP   1   1.00
      0.2120313              1.0000000              1.0000000
D    1   1.00
      1.8260000              1.0000000
D    1   1.00
      0.4565000              1.0000000
F    1   1.00
      1.0000000              1.0000000
****
O     0
S    6   1.00
   5484.6717000              0.0018311
    825.2349500              0.0139501
    188.0469600              0.0684451
     52.9645000              0.2327143
     16.8975700              0.4701930
      5.7996353              0.3585209
SP   3   1.00
     15.5396160             -0.1107775              0.0708743
      3.5999336             -0.1480263              0.3397528
      1.0137618              1.1307670              0.7271586
SP   1   1.00
      0.2700058              1.0000000              1.0000000
D    1   1.00
      2.5840000              1.0000000
D    1   1.00
      0.6460000              1.0000000
F    1   1.00
      1.4000000              1.0000000
****
F     0
S    6   1.00
   7001.7130900              0.0018196169
   1051.3660900              0.0139160796
    239.2856900              0.0684053245
     67.3974453              0.233185760
     21.5199573              0.471267439
      7.40310130             0.356618546
SP   3   1.00
     20.8479528             -0.108506975            0.0716287243
      4.80830834            -0.146451658            0.3459121030
      1.34406986             1.128688580            0.7224699570
SP   1   1.00
      0.358151393            1.0000000              1.0000000
D    1   1.00
      3.5000000              1.0000000
D    1   1.00
      0.8750000              1.0000000
F    1   1.00
      1.8500000              1.0000000
****
Al     0
S    6   1.00
  13983.1000000              0.00194267
   2098.7500000              0.0148599
    477.7050000              0.0728494
    134.3600000              0.2468300
     42.8709000              0.4872580
     14.5189000              0.3234960
SP   6   1.00
    239.6680000             -0.00292619             0.00460285
     57.4419000             -0.0374080              0.0331990
     18.2859000             -0.1144870              0.1362820
      6.5991400              0.1156350              0.3304760
      2.4904900              0.6125950              0.4491460
      0.9445400              0.3937990              0.2657040
SP   3   1.00
      1.2779000             -0.2276060             -0.0175130
      0.3975900              0.00144583             0.2445330
      0.1600950              1.0927900              0.8049340
SP   1   1.00
      0.0556577              1.0000000              1.0000000
D    1   1.00
      0.6500000              1.0000000
D    1   1.00
      0.1625000              1.0000000
F    1   1.00
      0.2500000              1.0000000
****
Si     0
S    6   1.00
  16115.9000000              0.00195948
   2425.5800000              0.01492880
    553.8670000              0.07284780
    156.3400000              0.24613000
     50.0683000              0.48591400
     17.0178000              0.32500200
SP   6   1.00
    292.7180000             -0.00278094             0.00443826
     69.8731000             -0.03571460             0.03266790
     22.3363000             -0.11498500             0.13472100
      8.1503900              0.09356340             0.32867800
      3.1345800              0.60301700             0.44964000
      1.2254300              0.41895900             0.26137200
SP   3   1.00
      1.7273800             -0.24463000            -0.01779510
      0.5729220              0.00431572             0.25353900
      0.2221920              1.09818000             0.80066900
SP   1   1.00
      0.0778369              1.00000000             1.00000000
D    1   1.00
      0.9000000              1.0000000
D    1   1.00
      0.2250000              1.0000000
F    1   1.00
      0.3200000              1.0000000
****
P     0
S    6   1.00
  19413.3000000              0.0018516
   2909.4200000              0.0142062
    661.3640000              0.0699995
    185.7590000              0.2400790
     59.1943000              0.4847620
     20.0310000              0.3352000
SP   6   1.00
    339.4780000             -0.00278217             0.00456462
     81.0101000             -0.0360499              0.03369360
     25.8780000             -0.1166310              0.13975500
      9.4522100              0.0968328              0.33936200
      3.6656600              0.6144180              0.45092100
      1.4674600              0.4037980              0.23858600
SP   3   1.00
      2.1562300             -0.2529230             -0.01776530
      0.7489970              0.0328517              0.27405800
      0.2831450              1.0812500              0.78542100
SP   1   1.00
      0.0998317              1.0000000              1.00000000
D    1   1.00
      1.1000000              1.0000000
D    1   1.00
      0.2750000              1.0000000
F    1   1.00
      0.4500000              1.0000000
****
S     0
S    6   1.00
  21917.1000000              0.0018690
   3301.4900000              0.0142300
    754.1460000              0.0696960
    212.7110000              0.2384870
     67.9896000              0.4833070
     23.0515000              0.3380740
SP   6   1.00
    423.7350000             -0.0023767              0.0040610
    100.7100000             -0.0316930              0.0306810
     32.1599000             -0.1133170              0.1304520
     11.8079000              0.0560900              0.3272050
      4.6311000              0.5922550              0.4528510
      1.8702500              0.4550060              0.2560420
SP   3   1.00
      2.6158400             -0.2503740             -0.0145110
      0.9221670              0.0669570              0.3102630
      0.3412870              1.0545100              0.7544830
SP   1   1.00
      0.1171670              1.0000000              1.0000000
D    1   1.00
      1.3000000              1.0000000
D    1   1.00
      0.3250000              1.0000000
F    1   1.00
      0.5500000              1.0000000
****
Cl     0
S    6   1.00
  25180.1000000              0.0018330
   3780.3500000              0.0140340
    860.4740000              0.0690970
    242.1450000              0.2374520
     77.3349000              0.4830340
     26.2470000              0.3398560
SP   6   1.00
    491.7650000             -0.0022974              0.0039894
    116.9840000             -0.0307140              0.0303180
     37.4153000             -0.1125280              0.1298800
     13.7834000              0.0450160              0.3279510
      5.4521500              0.5893530              0.4535270
      2.2258800              0.4652060              0.2521540
SP   3   1.00
      3.1864900             -0.2518300             -0.0142990
      1.1442700              0.0615890              0.3235720
      0.4203770              1.0601800              0.7435070
SP   1   1.00
      0.1426570              1.0000000              1.0000000
D    1   1.00
      1.5000000              1.0000000
D    1   1.00
      0.3750000              1.0000000
F    1   1.00
      0.7000000              1.0000000
****
}

set {
reference uhf
freeze_core true
e_convergence 10
d_convergence 10
dft_spherical_points 1202
dft_radial_points 99
}

e = energy('b3lyp')

print_out('Grab this energy {0}'.format(e))
--------------------------------------------------------------------------

    Molecular point group: c1

    Geometry (in Bohr), charge = 0, multiplicity = 2:

       Center              X                  Y                   Z               Mass
    ------------   -----------------  -----------------  -----------------  -----------------
         C            1.174307996288    -0.043067635649    -0.000666224019    12.000000000000
         H            2.094905764688    -1.891852079649    -0.002119954019     1.007825032230
         H            2.396998211988     1.610222040951    -0.004550201019     1.007825032230
         C           -1.307355557112     0.159675239551     0.001664090981    12.000000000000
         H           -2.907729463412    -1.106796723949    -0.005211275919     1.007825032230

  Charge       = 0
  Multiplicity = 2
  Basis Set: ANONYMOUS22B5E3D9
    Blend: 6-31G_2DFP_
  Basis Set: (ANONYMOUS22B5E3D9 AUX)
    Blend: DEF2-UNIVERSAL-JKFIT

    Orbital Energies [Eh]
    ---------------------

    Alpha Occupied:

       1A    -10.204409     2A    -10.185973     3A     -0.760552
       4A     -0.572831     5A     -0.457250     6A     -0.425854
       7A     -0.278398     8A     -0.234519

    Alpha Virtual:

       9A      0.012487    10A      0.117209    11A      0.121768
      12A      0.183768    13A      0.305279    14A      0.412889
      15A      0.458312    16A      0.473613    17A      0.490412
      18A      0.511711    19A      0.514123    20A      0.591840
      21A      0.595419    22A      0.638507    23A      0.654686
      24A      0.668753    25A      0.706244    26A      0.734737
      27A      0.858467    28A      0.913820    29A      0.975134
      30A      0.985525    31A      1.042157    32A      1.046420
      33A      1.153902    34A      1.193978    35A      1.248365
      36A      1.328455    37A      1.472580    38A      1.541808
      39A      1.602894    40A      1.732787    41A      1.809102
      42A      1.994355    43A      2.317845    44A      2.649914
      45A      2.723699    46A      2.771562    47A      2.810443
      48A      2.849187    49A      2.870307    50A      2.956050
      51A      3.046916    52A      3.103727    53A      3.108867
      54A      3.142290    55A      3.175604    56A      3.191657
      57A      3.255976    58A      3.321432    59A      3.386715
      60A      3.398669    61A      3.570487    62A      3.651632
      63A      3.770374    64A      4.014212    65A      4.056657
      66A      4.144808    67A      4.202136    68A      4.243973
      69A      4.246723    70A      4.408710    71A      4.501893
      72A      4.526511    73A      4.765918    74A      5.091350
      75A      5.185118    76A      5.407486

    Beta Occupied:

       1A    -10.189161     2A    -10.187486     3A     -0.743306
       4A     -0.551238     5A     -0.442209     6A     -0.412106
       7A     -0.270495

    Beta Virtual:

       8A     -0.067747     9A      0.024360    10A      0.119968
      11A      0.132189    12A      0.189468    13A      0.315047
      14A      0.422233    15A      0.476270    16A      0.482438
      17A      0.494417    18A      0.519820    19A      0.564609
      20A      0.600797    21A      0.612590    22A      0.645123
      23A      0.663208    24A      0.684207    25A      0.719557
      26A      0.757203    27A      0.876079    28A      0.931579
      29A      0.978611    30A      0.990851    31A      1.050445
      32A      1.051033    33A      1.163931    34A      1.202011
      35A      1.266150    36A      1.337137    37A      1.486773
      38A      1.549415    39A      1.611595    40A      1.749454
      41A      1.825136    42A      2.008561    43A      2.340203
      44A      2.661523    45A      2.752152    46A      2.791137
      47A      2.853014    48A      2.860432    49A      2.881116
      50A      2.974754    51A      3.049616    52A      3.116792
      53A      3.120039    54A      3.160781    55A      3.208733
      56A      3.228399    57A      3.288503    58A      3.346030
      59A      3.401458    60A      3.432338    61A      3.589720
      62A      3.667906    63A      3.795095    64A      4.028053
      65A      4.065722    66A      4.153350    67A      4.213716
      68A      4.253430    69A      4.262131    70A      4.419260
      71A      4.524555    72A      4.552095    73A      4.780478
      74A      5.103458    75A      5.196188    76A      5.419244

    Final Occupation by Irrep:
              A
    DOCC [     7 ]
    SOCC [     1 ]

  @DF-UKS Final Energy:   -77.90780119050770

   => Energetics <=

    Nuclear Repulsion Energy =             28.3116606613598698
    One-Electron Energy =                -159.5950109121707214
    Two-Electron Energy =                  62.9997605061529171
    DFT Exchange-Correlation Energy =      -9.6242114458497490
    Empirical Dispersion Energy =           0.0000000000000000
    VV10 Nonlocal Energy =                  0.0000000000000000
    Total Energy =                        -77.9078011905076977

  UHF NO Occupations:
  HONO-2 :    6  A 1.9992643
  HONO-1 :    7  A 1.9956639
  HONO-0 :    8  A 1.0000000
  LUNO+0 :    9  A 0.0043361
  LUNO+1 :   10  A 0.0007357
  LUNO+2 :   11  A 0.0002341
  LUNO+3 :   12  A 0.0001340

Computation Completed

Properties will be evaluated at   0.000000,   0.000000,   0.000000 [a0]

Properties computed using the SCF density matrix

  Nuclear Dipole Moment: [e a0]
     X:     0.7859      Y:    -0.6888      Z:    -0.0059

  Electronic Dipole Moment: [e a0]
     X:    -0.7015      Y:     0.4718      Z:     0.0039

  Dipole Moment: [e a0]
     X:     0.0844      Y:    -0.2170      Z:    -0.0020     Total:     0.2328

  Dipole Moment: [D]
     X:     0.2145      Y:    -0.5515      Z:    -0.0050     Total:     0.5918

*** tstop() called on n058 at Thu Nov  4 14:39:37 2021
Module time:
	user time   =      33.80 seconds =       0.56 minutes
	system time =       0.40 seconds =       0.01 minutes
	total time  =         35 seconds =       0.58 minutes
Total time:
	user time   =      33.80 seconds =       0.56 minutes
	system time =       0.40 seconds =       0.01 minutes
	total time  =         35 seconds =       0.58 minutes
Grab this energy -77.9078011905077
    Psi4 stopped on: Thursday, 04 November 2021 02:39PM
    Psi4 wall time for execution: 0:00:34.25

*** Psi4 exiting successfully. Buy a developer a beer!
