                               Psi4 1.4a2.dev629

  ==> Input File <==

--------------------------------------------------------------------------
import os
memory 14 GB

molecule {
 C    1.1738317899   -0.0434706296    0.0015099644
 H    2.0972782001   -1.8856235120    0.0000571835
 H    2.3967484725    1.6020795660   -0.0023740749
 C   -1.3072293042    0.1602555728    0.0038427588
 H   -2.9056548183   -1.1071187772   -0.0030358318
units bohr
0 2
}

basis {

assign 6-31g_2dfp_

[ 6-31g_2dfp_ ]

spherical

!----------------------------------------------------------------------
! Basis Set Exchange
! Version v0.8.13
! https://www.basissetexchange.org
!----------------------------------------------------------------------
!   Basis set: 6-31G(2df,p)
! Description: 6-31G(2df,p)
!        Role: orbital
!     Version: 0  (Data from the original Basis Set Exchange)
!----------------------------------------------------------------------

****
H     0
S    3   1.00
     18.7311370              0.03349460
      2.8253937              0.23472695
      0.6401217              0.81375733
S    1   1.00
      0.1612778              1.00000000
P    1   1.00
      1.5000000              1.0000000
P    1   1.00
      0.3750000              1.0000000
****
B     0
S    6   1.00
   2068.8823000              0.0018663
    310.6495700              0.0142515
     70.6830330              0.0695516
     19.8610800              0.2325729
      6.2993048              0.4670787
      2.1270270              0.3634314
SP   3   1.00
      4.7279710             -0.1303938              0.0745976
      1.1903377             -0.1307889              0.3078467
      0.3594117              1.1309444              0.7434568
SP   1   1.00
      0.1267512              1.0000000              1.0000000
D    1   1.00
      0.8020000              1.0000000
D    1   1.00
      0.2005000              1.0000000
F    1   1.00
      0.5000000              1.0000000
****
C     0
S    6   1.00
   3047.5249000              0.0018347
    457.3695100              0.0140373
    103.9486900              0.0688426
     29.2101550              0.2321844
      9.2866630              0.4679413
      3.1639270              0.3623120
SP   3   1.00
      7.8682724             -0.1193324              0.0689991
      1.8812885             -0.1608542              0.3164240
      0.5442493              1.1434564              0.7443083
SP   1   1.00
      0.1687144              1.0000000              1.0000000
D    1   1.00
      1.2520000              1.0000000
D    1   1.00
      0.3130000              1.0000000
F    1   1.00
      0.8000000              1.0000000
****
N     0
S    6   1.00
   4173.5110000              0.0018348
    627.4579000              0.0139950
    142.9021000              0.0685870
     40.2343300              0.2322410
     12.8202100              0.4690700
      4.3904370              0.3604550
SP   3   1.00
     11.6263580             -0.1149610              0.0675800
      2.7162800             -0.1691180              0.3239070
      0.7722180              1.1458520              0.7408950
SP   1   1.00
      0.2120313              1.0000000              1.0000000
D    1   1.00
      1.8260000              1.0000000
D    1   1.00
      0.4565000              1.0000000
F    1   1.00
      1.0000000              1.0000000
****
O     0
S    6   1.00
   5484.6717000              0.0018311
    825.2349500              0.0139501
    188.0469600              0.0684451
     52.9645000              0.2327143
     16.8975700              0.4701930
      5.7996353              0.3585209
SP   3   1.00
     15.5396160             -0.1107775              0.0708743
      3.5999336             -0.1480263              0.3397528
      1.0137618              1.1307670              0.7271586
SP   1   1.00
      0.2700058              1.0000000              1.0000000
D    1   1.00
      2.5840000              1.0000000
D    1   1.00
      0.6460000              1.0000000
F    1   1.00
      1.4000000              1.0000000
****
F     0
S    6   1.00
   7001.7130900              0.0018196169
   1051.3660900              0.0139160796
    239.2856900              0.0684053245
     67.3974453              0.233185760
     21.5199573              0.471267439
      7.40310130             0.356618546
SP   3   1.00
     20.8479528             -0.108506975            0.0716287243
      4.80830834            -0.146451658            0.3459121030
      1.34406986             1.128688580            0.7224699570
SP   1   1.00
      0.358151393            1.0000000              1.0000000
D    1   1.00
      3.5000000              1.0000000
D    1   1.00
      0.8750000              1.0000000
F    1   1.00
      1.8500000              1.0000000
****
Al     0
S    6   1.00
  13983.1000000              0.00194267
   2098.7500000              0.0148599
    477.7050000              0.0728494
    134.3600000              0.2468300
     42.8709000              0.4872580
     14.5189000              0.3234960
SP   6   1.00
    239.6680000             -0.00292619             0.00460285
     57.4419000             -0.0374080              0.0331990
     18.2859000             -0.1144870              0.1362820
      6.5991400              0.1156350              0.3304760
      2.4904900              0.6125950              0.4491460
      0.9445400              0.3937990              0.2657040
SP   3   1.00
      1.2779000             -0.2276060             -0.0175130
      0.3975900              0.00144583             0.2445330
      0.1600950              1.0927900              0.8049340
SP   1   1.00
      0.0556577              1.0000000              1.0000000
D    1   1.00
      0.6500000              1.0000000
D    1   1.00
      0.1625000              1.0000000
F    1   1.00
      0.2500000              1.0000000
****
Si     0
S    6   1.00
  16115.9000000              0.00195948
   2425.5800000              0.01492880
    553.8670000              0.07284780
    156.3400000              0.24613000
     50.0683000              0.48591400
     17.0178000              0.32500200
SP   6   1.00
    292.7180000             -0.00278094             0.00443826
     69.8731000             -0.03571460             0.03266790
     22.3363000             -0.11498500             0.13472100
      8.1503900              0.09356340             0.32867800
      3.1345800              0.60301700             0.44964000
      1.2254300              0.41895900             0.26137200
SP   3   1.00
      1.7273800             -0.24463000            -0.01779510
      0.5729220              0.00431572             0.25353900
      0.2221920              1.09818000             0.80066900
SP   1   1.00
      0.0778369              1.00000000             1.00000000
D    1   1.00
      0.9000000              1.0000000
D    1   1.00
      0.2250000              1.0000000
F    1   1.00
      0.3200000              1.0000000
****
P     0
S    6   1.00
  19413.3000000              0.0018516
   2909.4200000              0.0142062
    661.3640000              0.0699995
    185.7590000              0.2400790
     59.1943000              0.4847620
     20.0310000              0.3352000
SP   6   1.00
    339.4780000             -0.00278217             0.00456462
     81.0101000             -0.0360499              0.03369360
     25.8780000             -0.1166310              0.13975500
      9.4522100              0.0968328              0.33936200
      3.6656600              0.6144180              0.45092100
      1.4674600              0.4037980              0.23858600
SP   3   1.00
      2.1562300             -0.2529230             -0.01776530
      0.7489970              0.0328517              0.27405800
      0.2831450              1.0812500              0.78542100
SP   1   1.00
      0.0998317              1.0000000              1.00000000
D    1   1.00
      1.1000000              1.0000000
D    1   1.00
      0.2750000              1.0000000
F    1   1.00
      0.4500000              1.0000000
****
S     0
S    6   1.00
  21917.1000000              0.0018690
   3301.4900000              0.0142300
    754.1460000              0.0696960
    212.7110000              0.2384870
     67.9896000              0.4833070
     23.0515000              0.3380740
SP   6   1.00
    423.7350000             -0.0023767              0.0040610
    100.7100000             -0.0316930              0.0306810
     32.1599000             -0.1133170              0.1304520
     11.8079000              0.0560900              0.3272050
      4.6311000              0.5922550              0.4528510
      1.8702500              0.4550060              0.2560420
SP   3   1.00
      2.6158400             -0.2503740             -0.0145110
      0.9221670              0.0669570              0.3102630
      0.3412870              1.0545100              0.7544830
SP   1   1.00
      0.1171670              1.0000000              1.0000000
D    1   1.00
      1.3000000              1.0000000
D    1   1.00
      0.3250000              1.0000000
F    1   1.00
      0.5500000              1.0000000
****
Cl     0
S    6   1.00
  25180.1000000              0.0018330
   3780.3500000              0.0140340
    860.4740000              0.0690970
    242.1450000              0.2374520
     77.3349000              0.4830340
     26.2470000              0.3398560
SP   6   1.00
    491.7650000             -0.0022974              0.0039894
    116.9840000             -0.0307140              0.0303180
     37.4153000             -0.1125280              0.1298800
     13.7834000              0.0450160              0.3279510
      5.4521500              0.5893530              0.4535270
      2.2258800              0.4652060              0.2521540
SP   3   1.00
      3.1864900             -0.2518300             -0.0142990
      1.1442700              0.0615890              0.3235720
      0.4203770              1.0601800              0.7435070
SP   1   1.00
      0.1426570              1.0000000              1.0000000
D    1   1.00
      1.5000000              1.0000000
D    1   1.00
      0.3750000              1.0000000
F    1   1.00
      0.7000000              1.0000000
****
}

set {
reference uhf
freeze_core true
e_convergence 10
d_convergence 10
dft_spherical_points 1202
dft_radial_points 99
}

e = energy('b3lyp')

print_out('Grab this energy {0}'.format(e))
--------------------------------------------------------------------------

    Molecular point group: c1

    Geometry (in Bohr), charge = 0, multiplicity = 2:

       Center              X                  Y                   Z               Mass
    ------------   -----------------  -----------------  -----------------  -----------------
         C            1.173830652235    -0.043465989729    -0.000667330332    12.000000000000
         H            2.097277062435    -1.885618872129    -0.002120111232     1.007825032230
         H            2.396747334835     1.602084205871    -0.004551369632     1.007825032230
         C           -1.307230441865     0.160260212671     0.001665464068    12.000000000000
         H           -2.905655955965    -1.107114137329    -0.005213126532     1.007825032230

  Charge       = 0
  Multiplicity = 2
  Basis Set: ANONYMOUS6AC06FDC
    Blend: 6-31G_2DFP_
  Basis Set: (ANONYMOUS6AC06FDC AUX)
    Blend: DEF2-UNIVERSAL-JKFIT

    Orbital Energies [Eh]
    ---------------------

    Alpha Occupied:

       1A    -10.204378     2A    -10.185388     3A     -0.760776
       4A     -0.573434     5A     -0.457607     6A     -0.426127
       7A     -0.278451     8A     -0.234672

    Alpha Virtual:

       9A      0.012490    10A      0.117926    11A      0.122190
      12A      0.184165    13A      0.305654    14A      0.413160
      15A      0.458263    16A      0.473979    17A      0.490401
      18A      0.512138    19A      0.514414    20A      0.592241
      21A      0.595511    22A      0.639295    23A      0.654877
      24A      0.669246    25A      0.706795    26A      0.734551
      27A      0.858942    28A      0.913450    29A      0.976113
      30A      0.986950    31A      1.043685    32A      1.047796
      33A      1.154286    34A      1.194169    35A      1.248690
      36A      1.328821    37A      1.474246    38A      1.542474
      39A      1.607185    40A      1.734648    41A      1.810035
      42A      1.998073    43A      2.320524    44A      2.649685
      45A      2.724390    46A      2.771604    47A      2.810660
      48A      2.849643    49A      2.869946    50A      2.954327
      51A      3.046617    52A      3.103113    53A      3.106990
      54A      3.142984    55A      3.175120    56A      3.192287
      57A      3.257312    58A      3.322174    59A      3.387795
      60A      3.399359    61A      3.570740    62A      3.651843
      63A      3.770746    64A      4.020673    65A      4.058366
      66A      4.148310    67A      4.202130    68A      4.246362
      69A      4.249172    70A      4.413421    71A      4.503108
      72A      4.526572    73A      4.772275    74A      5.096163
      75A      5.194271    76A      5.409822

    Beta Occupied:

       1A    -10.189095     2A    -10.186924     3A     -0.743571
       4A     -0.551816     5A     -0.442611     6A     -0.412323
       7A     -0.270538

    Beta Virtual:

       8A     -0.067824     9A      0.024378    10A      0.120739
      11A      0.132528    12A      0.189856    13A      0.315456
      14A      0.422528    15A      0.476273    16A      0.482695
      17A      0.494403    18A      0.520295    19A      0.564981
      20A      0.600891    21A      0.613078    22A      0.646029
      23A      0.663315    24A      0.684497    25A      0.720012
      26A      0.757010    27A      0.876518    28A      0.931264
      29A      0.979568    30A      0.992332    31A      1.051973
      32A      1.052485    33A      1.164208    34A      1.202184
      35A      1.266494    36A      1.337532    37A      1.488451
      38A      1.550078    39A      1.616035    40A      1.751410
      41A      1.825906    42A      2.012294    43A      2.342942
      44A      2.661314    45A      2.752841    46A      2.791116
      47A      2.853100    48A      2.860895    49A      2.880798
      50A      2.973062    51A      3.049289    52A      3.114758
      53A      3.119680    54A      3.161517    55A      3.209354
      56A      3.228046    57A      3.289704    58A      3.346497
      59A      3.403402    60A      3.432318    61A      3.590034
      62A      3.668149    63A      3.795606    64A      4.034650
      65A      4.067387    66A      4.156907    67A      4.213682
      68A      4.254857    69A      4.265437    70A      4.423963
      71A      4.525817    72A      4.552113    73A      4.786829
      74A      5.108270    75A      5.205281    76A      5.421595

    Final Occupation by Irrep:
              A
    DOCC [     7 ]
    SOCC [     1 ]

  @DF-UKS Final Energy:   -77.90781248227805

   => Energetics <=

    Nuclear Repulsion Energy =             28.3352211768368285
    One-Electron Energy =                -159.6388725658572696
    Two-Electron Energy =                  63.0219932477023832
    DFT Exchange-Correlation Energy =      -9.6261543409599799
    Empirical Dispersion Energy =           0.0000000000000000
    VV10 Nonlocal Energy =                  0.0000000000000000
    Total Energy =                        -77.9078124822780467

  UHF NO Occupations:
  HONO-2 :    6  A 1.9992672
  HONO-1 :    7  A 1.9956683
  HONO-0 :    8  A 1.0000000
  LUNO+0 :    9  A 0.0043317
  LUNO+1 :   10  A 0.0007328
  LUNO+2 :   11  A 0.0002327
  LUNO+3 :   12  A 0.0001339

Computation Completed

Properties will be evaluated at   0.000000,   0.000000,   0.000000 [a0]

Properties computed using the SCF density matrix

  Nuclear Dipole Moment: [e a0]
     X:     0.7880      Y:    -0.6899      Z:    -0.0059

  Electronic Dipole Moment: [e a0]
     X:    -0.7022      Y:     0.4727      Z:     0.0039

  Dipole Moment: [e a0]
     X:     0.0857      Y:    -0.2172      Z:    -0.0020     Total:     0.2335

  Dipole Moment: [D]
     X:     0.2179      Y:    -0.5521      Z:    -0.0050     Total:     0.5936

*** tstop() called on n080 at Thu Nov  4 14:38:47 2021
Module time:
	user time   =      29.34 seconds =       0.49 minutes
	system time =       0.38 seconds =       0.01 minutes
	total time  =         30 seconds =       0.50 minutes
Total time:
	user time   =      29.34 seconds =       0.49 minutes
	system time =       0.38 seconds =       0.01 minutes
	total time  =         30 seconds =       0.50 minutes
Grab this energy -77.90781248227805
    Psi4 stopped on: Thursday, 04 November 2021 02:38PM
    Psi4 wall time for execution: 0:00:29.76

*** Psi4 exiting successfully. Buy a developer a beer!
