                               Psi4 1.4a2.dev629

  ==> Input File <==

--------------------------------------------------------------------------
import os
memory 14 GB

molecule {
 C    1.1779828440   -0.0432195703   -0.0015028174
 H    2.0961531890   -1.8854843348   -0.0000588497
 H    2.3955397955    1.6017062675    0.0023689851
 C   -1.3097319138    0.1596948155   -0.0038389004
 H   -2.9049695747   -1.1065749579    0.0030315823
units bohr
0 2
}

basis {

assign 6-31g_2dfp_

[ 6-31g_2dfp_ ]

spherical

!----------------------------------------------------------------------
! Basis Set Exchange
! Version v0.8.13
! https://www.basissetexchange.org
!----------------------------------------------------------------------
!   Basis set: 6-31G(2df,p)
! Description: 6-31G(2df,p)
!        Role: orbital
!     Version: 0  (Data from the original Basis Set Exchange)
!----------------------------------------------------------------------

****
H     0
S    3   1.00
     18.7311370              0.03349460
      2.8253937              0.23472695
      0.6401217              0.81375733
S    1   1.00
      0.1612778              1.00000000
P    1   1.00
      1.5000000              1.0000000
P    1   1.00
      0.3750000              1.0000000
****
B     0
S    6   1.00
   2068.8823000              0.0018663
    310.6495700              0.0142515
     70.6830330              0.0695516
     19.8610800              0.2325729
      6.2993048              0.4670787
      2.1270270              0.3634314
SP   3   1.00
      4.7279710             -0.1303938              0.0745976
      1.1903377             -0.1307889              0.3078467
      0.3594117              1.1309444              0.7434568
SP   1   1.00
      0.1267512              1.0000000              1.0000000
D    1   1.00
      0.8020000              1.0000000
D    1   1.00
      0.2005000              1.0000000
F    1   1.00
      0.5000000              1.0000000
****
C     0
S    6   1.00
   3047.5249000              0.0018347
    457.3695100              0.0140373
    103.9486900              0.0688426
     29.2101550              0.2321844
      9.2866630              0.4679413
      3.1639270              0.3623120
SP   3   1.00
      7.8682724             -0.1193324              0.0689991
      1.8812885             -0.1608542              0.3164240
      0.5442493              1.1434564              0.7443083
SP   1   1.00
      0.1687144              1.0000000              1.0000000
D    1   1.00
      1.2520000              1.0000000
D    1   1.00
      0.3130000              1.0000000
F    1   1.00
      0.8000000              1.0000000
****
N     0
S    6   1.00
   4173.5110000              0.0018348
    627.4579000              0.0139950
    142.9021000              0.0685870
     40.2343300              0.2322410
     12.8202100              0.4690700
      4.3904370              0.3604550
SP   3   1.00
     11.6263580             -0.1149610              0.0675800
      2.7162800             -0.1691180              0.3239070
      0.7722180              1.1458520              0.7408950
SP   1   1.00
      0.2120313              1.0000000              1.0000000
D    1   1.00
      1.8260000              1.0000000
D    1   1.00
      0.4565000              1.0000000
F    1   1.00
      1.0000000              1.0000000
****
O     0
S    6   1.00
   5484.6717000              0.0018311
    825.2349500              0.0139501
    188.0469600              0.0684451
     52.9645000              0.2327143
     16.8975700              0.4701930
      5.7996353              0.3585209
SP   3   1.00
     15.5396160             -0.1107775              0.0708743
      3.5999336             -0.1480263              0.3397528
      1.0137618              1.1307670              0.7271586
SP   1   1.00
      0.2700058              1.0000000              1.0000000
D    1   1.00
      2.5840000              1.0000000
D    1   1.00
      0.6460000              1.0000000
F    1   1.00
      1.4000000              1.0000000
****
F     0
S    6   1.00
   7001.7130900              0.0018196169
   1051.3660900              0.0139160796
    239.2856900              0.0684053245
     67.3974453              0.233185760
     21.5199573              0.471267439
      7.40310130             0.356618546
SP   3   1.00
     20.8479528             -0.108506975            0.0716287243
      4.80830834            -0.146451658            0.3459121030
      1.34406986             1.128688580            0.7224699570
SP   1   1.00
      0.358151393            1.0000000              1.0000000
D    1   1.00
      3.5000000              1.0000000
D    1   1.00
      0.8750000              1.0000000
F    1   1.00
      1.8500000              1.0000000
****
Al     0
S    6   1.00
  13983.1000000              0.00194267
   2098.7500000              0.0148599
    477.7050000              0.0728494
    134.3600000              0.2468300
     42.8709000              0.4872580
     14.5189000              0.3234960
SP   6   1.00
    239.6680000             -0.00292619             0.00460285
     57.4419000             -0.0374080              0.0331990
     18.2859000             -0.1144870              0.1362820
      6.5991400              0.1156350              0.3304760
      2.4904900              0.6125950              0.4491460
      0.9445400              0.3937990              0.2657040
SP   3   1.00
      1.2779000             -0.2276060             -0.0175130
      0.3975900              0.00144583             0.2445330
      0.1600950              1.0927900              0.8049340
SP   1   1.00
      0.0556577              1.0000000              1.0000000
D    1   1.00
      0.6500000              1.0000000
D    1   1.00
      0.1625000              1.0000000
F    1   1.00
      0.2500000              1.0000000
****
Si     0
S    6   1.00
  16115.9000000              0.00195948
   2425.5800000              0.01492880
    553.8670000              0.07284780
    156.3400000              0.24613000
     50.0683000              0.48591400
     17.0178000              0.32500200
SP   6   1.00
    292.7180000             -0.00278094             0.00443826
     69.8731000             -0.03571460             0.03266790
     22.3363000             -0.11498500             0.13472100
      8.1503900              0.09356340             0.32867800
      3.1345800              0.60301700             0.44964000
      1.2254300              0.41895900             0.26137200
SP   3   1.00
      1.7273800             -0.24463000            -0.01779510
      0.5729220              0.00431572             0.25353900
      0.2221920              1.09818000             0.80066900
SP   1   1.00
      0.0778369              1.00000000             1.00000000
D    1   1.00
      0.9000000              1.0000000
D    1   1.00
      0.2250000              1.0000000
F    1   1.00
      0.3200000              1.0000000
****
P     0
S    6   1.00
  19413.3000000              0.0018516
   2909.4200000              0.0142062
    661.3640000              0.0699995
    185.7590000              0.2400790
     59.1943000              0.4847620
     20.0310000              0.3352000
SP   6   1.00
    339.4780000             -0.00278217             0.00456462
     81.0101000             -0.0360499              0.03369360
     25.8780000             -0.1166310              0.13975500
      9.4522100              0.0968328              0.33936200
      3.6656600              0.6144180              0.45092100
      1.4674600              0.4037980              0.23858600
SP   3   1.00
      2.1562300             -0.2529230             -0.01776530
      0.7489970              0.0328517              0.27405800
      0.2831450              1.0812500              0.78542100
SP   1   1.00
      0.0998317              1.0000000              1.00000000
D    1   1.00
      1.1000000              1.0000000
D    1   1.00
      0.2750000              1.0000000
F    1   1.00
      0.4500000              1.0000000
****
S     0
S    6   1.00
  21917.1000000              0.0018690
   3301.4900000              0.0142300
    754.1460000              0.0696960
    212.7110000              0.2384870
     67.9896000              0.4833070
     23.0515000              0.3380740
SP   6   1.00
    423.7350000             -0.0023767              0.0040610
    100.7100000             -0.0316930              0.0306810
     32.1599000             -0.1133170              0.1304520
     11.8079000              0.0560900              0.3272050
      4.6311000              0.5922550              0.4528510
      1.8702500              0.4550060              0.2560420
SP   3   1.00
      2.6158400             -0.2503740             -0.0145110
      0.9221670              0.0669570              0.3102630
      0.3412870              1.0545100              0.7544830
SP   1   1.00
      0.1171670              1.0000000              1.0000000
D    1   1.00
      1.3000000              1.0000000
D    1   1.00
      0.3250000              1.0000000
F    1   1.00
      0.5500000              1.0000000
****
Cl     0
S    6   1.00
  25180.1000000              0.0018330
   3780.3500000              0.0140340
    860.4740000              0.0690970
    242.1450000              0.2374520
     77.3349000              0.4830340
     26.2470000              0.3398560
SP   6   1.00
    491.7650000             -0.0022974              0.0039894
    116.9840000             -0.0307140              0.0303180
     37.4153000             -0.1125280              0.1298800
     13.7834000              0.0450160              0.3279510
      5.4521500              0.5893530              0.4535270
      2.2258800              0.4652060              0.2521540
SP   3   1.00
      3.1864900             -0.2518300             -0.0142990
      1.1442700              0.0615890              0.3235720
      0.4203770              1.0601800              0.7435070
SP   1   1.00
      0.1426570              1.0000000              1.0000000
D    1   1.00
      1.5000000              1.0000000
D    1   1.00
      0.3750000              1.0000000
F    1   1.00
      0.7000000              1.0000000
****
}

set {
reference uhf
freeze_core true
e_convergence 10
d_convergence 10
dft_spherical_points 1202
dft_radial_points 99
}

e = energy('b3lyp')

print_out('Grab this energy {0}'.format(e))
--------------------------------------------------------------------------

    Molecular point group: c1

    Geometry (in Bohr), charge = 0, multiplicity = 2:

       Center              X                  Y                   Z               Mass
    ------------   -----------------  -----------------  -----------------  -----------------
         C            1.177311178570    -0.043088956453     0.000670000736    12.000000000000
         H            2.095481523570    -1.885353720953     0.002113968436     1.007825032230
         H            2.394868130070     1.601836881347     0.004541803236     1.007825032230
         C           -1.310403579230     0.159825429347    -0.001666082264    12.000000000000
         H           -2.905641240130    -1.106444344053     0.005204400436     1.007825032230

  Charge       = 0
  Multiplicity = 2
  Basis Set: ANONYMOUSE1F04465
    Blend: 6-31G_2DFP_
  Basis Set: (ANONYMOUSE1F04465 AUX)
    Blend: DEF2-UNIVERSAL-JKFIT

    Orbital Energies [Eh]
    ---------------------

    Alpha Occupied:

       1A    -10.204751     2A    -10.185584     3A     -0.760171
       4A     -0.574042     5A     -0.457478     6A     -0.426303
       7A     -0.277890     8A     -0.234997

    Alpha Virtual:

       9A      0.011691    10A      0.118155    11A      0.122723
      12A      0.184207    13A      0.304894    14A      0.413395
      15A      0.458484    16A      0.473481    17A      0.490941
      18A      0.512311    19A      0.514009    20A      0.592598
      21A      0.596051    22A      0.639745    23A      0.654591
      24A      0.669923    25A      0.705765    26A      0.734083
      27A      0.858798    28A      0.912437    29A      0.976356
      30A      0.986990    31A      1.043725    32A      1.047272
      33A      1.154341    34A      1.193350    35A      1.249104
      36A      1.328612    37A      1.474461    38A      1.541545
      39A      1.608165    40A      1.731687    41A      1.811491
      42A      1.998609    43A      2.319772    44A      2.649020
      45A      2.724402    46A      2.770886    47A      2.811189
      48A      2.849589    49A      2.869097    50A      2.957742
      51A      3.047111    52A      3.102063    53A      3.107034
      54A      3.145380    55A      3.175903    56A      3.191480
      57A      3.256261    58A      3.321954    59A      3.388371
      60A      3.397564    61A      3.568805    62A      3.649306
      63A      3.768368    64A      4.018362    65A      4.057009
      66A      4.149514    67A      4.201083    68A      4.244548
      69A      4.247929    70A      4.412956    71A      4.498400
      72A      4.531097    73A      4.775201    74A      5.098850
      75A      5.195755    76A      5.409695

    Beta Occupied:

       1A    -10.189424     2A    -10.187136     3A     -0.742987
       4A     -0.552370     5A     -0.442441     6A     -0.412780
       7A     -0.269969

    Beta Virtual:

       8A     -0.067789     9A      0.023607    10A      0.120927
      11A      0.132981    12A      0.189816    13A      0.314702
      14A      0.422782    15A      0.476306    16A      0.482217
      17A      0.494952    18A      0.520420    19A      0.564818
      20A      0.601401    21A      0.613449    22A      0.646411
      23A      0.662997    24A      0.685215    25A      0.719067
      26A      0.756667    27A      0.876256    28A      0.930242
      29A      0.979770    30A      0.992337    31A      1.051782
      32A      1.052003    33A      1.164281    34A      1.201381
      35A      1.266917    36A      1.337303    37A      1.488638
      38A      1.549147    39A      1.616887    40A      1.748591
      41A      1.827173    42A      2.012672    43A      2.342094
      44A      2.660578    45A      2.752951    46A      2.790329
      47A      2.853869    48A      2.861047    49A      2.880142
      50A      2.976298    51A      3.049760    52A      3.114699
      53A      3.118508    54A      3.164545    55A      3.208627
      56A      3.228313    57A      3.288360    58A      3.346442
      59A      3.404335    60A      3.430420    61A      3.588122
      62A      3.665646    63A      3.793207    64A      4.032274
      65A      4.065835    66A      4.158100    67A      4.212603
      68A      4.252733    69A      4.264536    70A      4.423401
      71A      4.521314    72A      4.556578    73A      4.789589
      74A      5.110784    75A      5.206614    76A      5.421424

    Final Occupation by Irrep:
              A
    DOCC [     7 ]
    SOCC [     1 ]

  @DF-UKS Final Energy:   -77.90768739384556

   => Energetics <=

    Nuclear Repulsion Energy =             28.3085263192214569
    One-Electron Energy =                -159.5848553196808552
    Two-Electron Energy =                  62.9944329018441493
    DFT Exchange-Correlation Energy =      -9.6257912952303268
    Empirical Dispersion Energy =           0.0000000000000000
    VV10 Nonlocal Energy =                  0.0000000000000000
    Total Energy =                        -77.9076873938455634

  UHF NO Occupations:
  HONO-2 :    6  A 1.9992708
  HONO-1 :    7  A 1.9955574
  HONO-0 :    8  A 1.0000000
  LUNO+0 :    9  A 0.0044426
  LUNO+1 :   10  A 0.0007292
  LUNO+2 :   11  A 0.0002309
  LUNO+3 :   12  A 0.0001351

Computation Completed

Properties will be evaluated at   0.000000,   0.000000,   0.000000 [a0]

Properties computed using the SCF density matrix

  Nuclear Dipole Moment: [e a0]
     X:     0.7862      Y:    -0.6895      Z:     0.0059

  Electronic Dipole Moment: [e a0]
     X:    -0.7010      Y:     0.4724      Z:    -0.0039

  Dipole Moment: [e a0]
     X:     0.0852      Y:    -0.2171      Z:     0.0020     Total:     0.2333

  Dipole Moment: [D]
     X:     0.2165      Y:    -0.5519      Z:     0.0050     Total:     0.5929

*** tstop() called on n021 at Thu Nov  4 14:37:28 2021
Module time:
	user time   =      38.66 seconds =       0.64 minutes
	system time =       0.34 seconds =       0.01 minutes
	total time  =         39 seconds =       0.65 minutes
Total time:
	user time   =      38.66 seconds =       0.64 minutes
	system time =       0.34 seconds =       0.01 minutes
	total time  =         39 seconds =       0.65 minutes
Grab this energy -77.90768739384556
    Psi4 stopped on: Thursday, 04 November 2021 02:37PM
    Psi4 wall time for execution: 0:00:39.04

*** Psi4 exiting successfully. Buy a developer a beer!
