                               Psi4 1.4a2.dev629

  ==> Input File <==

--------------------------------------------------------------------------
import os
memory 14 GB

molecule {
 C    1.1742028758   -0.0399917989    0.0000000000
 H    2.0939569397   -1.8837490367   -0.0000000000
 H    2.3967020995    1.6014270648    0.0000000000
 C   -1.3027695319    0.1529965936   -0.0000000000
 H   -2.9071180431   -1.1045606028    0.0000000000
units bohr
0 2
}

basis {

assign 6-31g_2dfp_

[ 6-31g_2dfp_ ]

spherical

!----------------------------------------------------------------------
! Basis Set Exchange
! Version v0.8.13
! https://www.basissetexchange.org
!----------------------------------------------------------------------
!   Basis set: 6-31G(2df,p)
! Description: 6-31G(2df,p)
!        Role: orbital
!     Version: 0  (Data from the original Basis Set Exchange)
!----------------------------------------------------------------------

****
H     0
S    3   1.00
     18.7311370              0.03349460
      2.8253937              0.23472695
      0.6401217              0.81375733
S    1   1.00
      0.1612778              1.00000000
P    1   1.00
      1.5000000              1.0000000
P    1   1.00
      0.3750000              1.0000000
****
B     0
S    6   1.00
   2068.8823000              0.0018663
    310.6495700              0.0142515
     70.6830330              0.0695516
     19.8610800              0.2325729
      6.2993048              0.4670787
      2.1270270              0.3634314
SP   3   1.00
      4.7279710             -0.1303938              0.0745976
      1.1903377             -0.1307889              0.3078467
      0.3594117              1.1309444              0.7434568
SP   1   1.00
      0.1267512              1.0000000              1.0000000
D    1   1.00
      0.8020000              1.0000000
D    1   1.00
      0.2005000              1.0000000
F    1   1.00
      0.5000000              1.0000000
****
C     0
S    6   1.00
   3047.5249000              0.0018347
    457.3695100              0.0140373
    103.9486900              0.0688426
     29.2101550              0.2321844
      9.2866630              0.4679413
      3.1639270              0.3623120
SP   3   1.00
      7.8682724             -0.1193324              0.0689991
      1.8812885             -0.1608542              0.3164240
      0.5442493              1.1434564              0.7443083
SP   1   1.00
      0.1687144              1.0000000              1.0000000
D    1   1.00
      1.2520000              1.0000000
D    1   1.00
      0.3130000              1.0000000
F    1   1.00
      0.8000000              1.0000000
****
N     0
S    6   1.00
   4173.5110000              0.0018348
    627.4579000              0.0139950
    142.9021000              0.0685870
     40.2343300              0.2322410
     12.8202100              0.4690700
      4.3904370              0.3604550
SP   3   1.00
     11.6263580             -0.1149610              0.0675800
      2.7162800             -0.1691180              0.3239070
      0.7722180              1.1458520              0.7408950
SP   1   1.00
      0.2120313              1.0000000              1.0000000
D    1   1.00
      1.8260000              1.0000000
D    1   1.00
      0.4565000              1.0000000
F    1   1.00
      1.0000000              1.0000000
****
O     0
S    6   1.00
   5484.6717000              0.0018311
    825.2349500              0.0139501
    188.0469600              0.0684451
     52.9645000              0.2327143
     16.8975700              0.4701930
      5.7996353              0.3585209
SP   3   1.00
     15.5396160             -0.1107775              0.0708743
      3.5999336             -0.1480263              0.3397528
      1.0137618              1.1307670              0.7271586
SP   1   1.00
      0.2700058              1.0000000              1.0000000
D    1   1.00
      2.5840000              1.0000000
D    1   1.00
      0.6460000              1.0000000
F    1   1.00
      1.4000000              1.0000000
****
F     0
S    6   1.00
   7001.7130900              0.0018196169
   1051.3660900              0.0139160796
    239.2856900              0.0684053245
     67.3974453              0.233185760
     21.5199573              0.471267439
      7.40310130             0.356618546
SP   3   1.00
     20.8479528             -0.108506975            0.0716287243
      4.80830834            -0.146451658            0.3459121030
      1.34406986             1.128688580            0.7224699570
SP   1   1.00
      0.358151393            1.0000000              1.0000000
D    1   1.00
      3.5000000              1.0000000
D    1   1.00
      0.8750000              1.0000000
F    1   1.00
      1.8500000              1.0000000
****
Al     0
S    6   1.00
  13983.1000000              0.00194267
   2098.7500000              0.0148599
    477.7050000              0.0728494
    134.3600000              0.2468300
     42.8709000              0.4872580
     14.5189000              0.3234960
SP   6   1.00
    239.6680000             -0.00292619             0.00460285
     57.4419000             -0.0374080              0.0331990
     18.2859000             -0.1144870              0.1362820
      6.5991400              0.1156350              0.3304760
      2.4904900              0.6125950              0.4491460
      0.9445400              0.3937990              0.2657040
SP   3   1.00
      1.2779000             -0.2276060             -0.0175130
      0.3975900              0.00144583             0.2445330
      0.1600950              1.0927900              0.8049340
SP   1   1.00
      0.0556577              1.0000000              1.0000000
D    1   1.00
      0.6500000              1.0000000
D    1   1.00
      0.1625000              1.0000000
F    1   1.00
      0.2500000              1.0000000
****
Si     0
S    6   1.00
  16115.9000000              0.00195948
   2425.5800000              0.01492880
    553.8670000              0.07284780
    156.3400000              0.24613000
     50.0683000              0.48591400
     17.0178000              0.32500200
SP   6   1.00
    292.7180000             -0.00278094             0.00443826
     69.8731000             -0.03571460             0.03266790
     22.3363000             -0.11498500             0.13472100
      8.1503900              0.09356340             0.32867800
      3.1345800              0.60301700             0.44964000
      1.2254300              0.41895900             0.26137200
SP   3   1.00
      1.7273800             -0.24463000            -0.01779510
      0.5729220              0.00431572             0.25353900
      0.2221920              1.09818000             0.80066900
SP   1   1.00
      0.0778369              1.00000000             1.00000000
D    1   1.00
      0.9000000              1.0000000
D    1   1.00
      0.2250000              1.0000000
F    1   1.00
      0.3200000              1.0000000
****
P     0
S    6   1.00
  19413.3000000              0.0018516
   2909.4200000              0.0142062
    661.3640000              0.0699995
    185.7590000              0.2400790
     59.1943000              0.4847620
     20.0310000              0.3352000
SP   6   1.00
    339.4780000             -0.00278217             0.00456462
     81.0101000             -0.0360499              0.03369360
     25.8780000             -0.1166310              0.13975500
      9.4522100              0.0968328              0.33936200
      3.6656600              0.6144180              0.45092100
      1.4674600              0.4037980              0.23858600
SP   3   1.00
      2.1562300             -0.2529230             -0.01776530
      0.7489970              0.0328517              0.27405800
      0.2831450              1.0812500              0.78542100
SP   1   1.00
      0.0998317              1.0000000              1.00000000
D    1   1.00
      1.1000000              1.0000000
D    1   1.00
      0.2750000              1.0000000
F    1   1.00
      0.4500000              1.0000000
****
S     0
S    6   1.00
  21917.1000000              0.0018690
   3301.4900000              0.0142300
    754.1460000              0.0696960
    212.7110000              0.2384870
     67.9896000              0.4833070
     23.0515000              0.3380740
SP   6   1.00
    423.7350000             -0.0023767              0.0040610
    100.7100000             -0.0316930              0.0306810
     32.1599000             -0.1133170              0.1304520
     11.8079000              0.0560900              0.3272050
      4.6311000              0.5922550              0.4528510
      1.8702500              0.4550060              0.2560420
SP   3   1.00
      2.6158400             -0.2503740             -0.0145110
      0.9221670              0.0669570              0.3102630
      0.3412870              1.0545100              0.7544830
SP   1   1.00
      0.1171670              1.0000000              1.0000000
D    1   1.00
      1.3000000              1.0000000
D    1   1.00
      0.3250000              1.0000000
F    1   1.00
      0.5500000              1.0000000
****
Cl     0
S    6   1.00
  25180.1000000              0.0018330
   3780.3500000              0.0140340
    860.4740000              0.0690970
    242.1450000              0.2374520
     77.3349000              0.4830340
     26.2470000              0.3398560
SP   6   1.00
    491.7650000             -0.0022974              0.0039894
    116.9840000             -0.0307140              0.0303180
     37.4153000             -0.1125280              0.1298800
     13.7834000              0.0450160              0.3279510
      5.4521500              0.5893530              0.4535270
      2.2258800              0.4652060              0.2521540
SP   3   1.00
      3.1864900             -0.2518300             -0.0142990
      1.1442700              0.0615890              0.3235720
      0.4203770              1.0601800              0.7435070
SP   1   1.00
      0.1426570              1.0000000              1.0000000
D    1   1.00
      1.5000000              1.0000000
D    1   1.00
      0.3750000              1.0000000
F    1   1.00
      0.7000000              1.0000000
****
}

set {
reference uhf
freeze_core true
e_convergence 10
d_convergence 10
dft_spherical_points 1202
dft_radial_points 99
}

e = energy('b3lyp')

print_out('Grab this energy {0}'.format(e))
--------------------------------------------------------------------------

    Molecular point group: cs

    Geometry (in Bohr), charge = 0, multiplicity = 2:

       Center              X                  Y                   Z               Mass
    ------------   -----------------  -----------------  -----------------  -----------------
         C            1.172236719262    -0.038449530965     0.000000000000    12.000000000000
         H            2.091990783162    -1.882206768765     0.000000000000     1.007825032230
         H            2.394735942962     1.602969332735     0.000000000000     1.007825032230
         C           -1.304735688438     0.154538861535     0.000000000000    12.000000000000
         H           -2.909084199638    -1.103018334865     0.000000000000     1.007825032230

  Charge       = 0
  Multiplicity = 2
  Basis Set: ANONYMOUS0E13CC9D
    Blend: 6-31G_2DFP_
  Basis Set: (ANONYMOUS0E13CC9D AUX)
    Blend: DEF2-UNIVERSAL-JKFIT

    Orbital Energies [Eh]
    ---------------------

    Alpha Occupied:

       1Ap   -10.203662     2Ap   -10.184892     3Ap    -0.761360
       4Ap    -0.573543     5Ap    -0.457579     6Ap    -0.427351
       1App   -0.278810     7Ap    -0.233415

    Alpha Virtual:

       2App    0.013108     8Ap     0.118235     9Ap     0.122146
      10Ap     0.184486    11Ap     0.305993    12Ap     0.412494
      13Ap     0.458796    14Ap     0.474107     3App    0.490069
       4App    0.512207    15Ap     0.515251    16Ap     0.593210
       5App    0.595171    17Ap     0.640462     6App    0.654999
      18Ap     0.669870    19Ap     0.708042     7App    0.735870
      20Ap     0.859820    21Ap     0.913844     8App    0.975541
      22Ap     0.986402    23Ap     1.041093     9App    1.048630
      24Ap     1.155376    10App    1.196146    25Ap     1.248930
      11App    1.330272    26Ap     1.476814    27Ap     1.543625
      28Ap     1.609965    29Ap     1.736900    30Ap     1.814719
      31Ap     1.999144    32Ap     2.328530    12App    2.651100
      13App    2.725256    33Ap     2.772212    34Ap     2.808052
      14App    2.849212    35Ap     2.870584    36Ap     2.952132
      15App    3.045994    37Ap     3.103379    16App    3.106941
      17App    3.139033    18App    3.174541    38Ap     3.191561
      39Ap     3.258106    40Ap     3.326064    41Ap     3.387717
      42Ap     3.402685    19App    3.570847    20App    3.655067
      43Ap     3.773078    44Ap     4.022294    21App    4.060333
      22App    4.151151    45Ap     4.205260    46Ap     4.246493
      23App    4.251351    24App    4.418246    47Ap     4.506400
      48Ap     4.534915    49Ap     4.778217    50Ap     5.096892
      51Ap     5.198504    52Ap     5.414842

    Beta Occupied:

       1Ap   -10.188431     2Ap   -10.186415     3Ap    -0.744117
       4Ap    -0.551904     5Ap    -0.442582     6Ap    -0.413434
       1App   -0.270927

    Beta Virtual:

       7Ap    -0.066878     2App    0.024923     8Ap     0.121056
       9Ap     0.132541    10Ap     0.190167    11Ap     0.315608
      12Ap     0.421956    13Ap     0.476700    14Ap     0.483316
       3App    0.494054     4App    0.520416    15Ap     0.565435
       5App    0.600468    16Ap     0.614050    17Ap     0.647303
       6App    0.663392    18Ap     0.685100    19Ap     0.721321
       7App    0.758530    20Ap     0.877518    21Ap     0.931556
       8App    0.978955    22Ap     0.991862    23Ap     1.049485
       9App    1.053233    24Ap     1.165311    10App    1.204159
      25Ap     1.266712    11App    1.338865    26Ap     1.490976
      27Ap     1.551213    28Ap     1.618729    29Ap     1.753230
      30Ap     1.830879    31Ap     2.013418    32Ap     2.351013
      12App    2.662963    13App    2.753708    33Ap     2.791753
      34Ap     2.850808    14App    2.860325    35Ap     2.881205
      36Ap     2.971061    15App    3.048591    16App    3.114718
      37Ap     3.119754    17App    3.157778    38Ap     3.209296
      18App    3.227140    39Ap     3.291270    40Ap     3.349539
      41Ap     3.402230    42Ap     3.436431    19App    3.590121
      20App    3.671339    43Ap     3.797588    44Ap     4.036316
      21App    4.069498    22App    4.159563    45Ap     4.216483
      23App    4.259235    46Ap     4.263349    24App    4.428649
      47Ap     4.529072    48Ap     4.560377    49Ap     4.792846
      50Ap     5.108941    51Ap     5.209726    52Ap     5.426507

    Final Occupation by Irrep:
             Ap   App
    DOCC [     6,    1 ]
    SOCC [     1,    0 ]

  @DF-UKS Final Energy:   -77.90786576613968

   => Energetics <=

    Nuclear Repulsion Energy =             28.3760196228419836
    One-Electron Energy =                -159.7184311079349754
    Two-Electron Energy =                  63.0627698707891469
    DFT Exchange-Correlation Energy =      -9.6282241518358411
    Empirical Dispersion Energy =           0.0000000000000000
    VV10 Nonlocal Energy =                  0.0000000000000000
    Total Energy =                        -77.9078657661396790

  UHF NO Occupations:
  HONO-2 :    6 Ap 1.9992583
  HONO-1 :    1App 1.9957711
  HONO-0 :    7 Ap 1.0000000
  LUNO+0 :    2App 0.0042289
  LUNO+1 :    8 Ap 0.0007417
  LUNO+2 :    9 Ap 0.0002357
  LUNO+3 :   10 Ap 0.0001329

Computation Completed

Properties will be evaluated at   0.000000,   0.000000,   0.000000 [a0]

Properties computed using the SCF density matrix

  Nuclear Dipole Moment: [e a0]
     X:     0.7826      Y:    -0.6857      Z:     0.0000

  Electronic Dipole Moment: [e a0]
     X:    -0.6989      Y:     0.4700      Z:     0.0000

  Dipole Moment: [e a0]
     X:     0.0838      Y:    -0.2158      Z:     0.0000     Total:     0.2315

  Dipole Moment: [D]
     X:     0.2130      Y:    -0.5484      Z:     0.0000     Total:     0.5883

*** tstop() called on n044 at Thu Nov  4 14:38:30 2021
Module time:
	user time   =      41.17 seconds =       0.69 minutes
	system time =       0.31 seconds =       0.01 minutes
	total time  =         42 seconds =       0.70 minutes
Total time:
	user time   =      41.17 seconds =       0.69 minutes
	system time =       0.31 seconds =       0.01 minutes
	total time  =         42 seconds =       0.70 minutes
Grab this energy -77.90786576613968
    Psi4 stopped on: Thursday, 04 November 2021 02:38PM
    Psi4 wall time for execution: 0:00:41.52

*** Psi4 exiting successfully. Buy a developer a beer!
