                               Psi4 1.4a2.dev629

  ==> Input File <==

--------------------------------------------------------------------------
import os
memory 14 GB

molecule {
 C    1.1724039556   -0.0455353093    0.0000000000
 H    2.0942592873   -1.8817357381   -0.0000000000
 H    2.3989267583    1.6039141441    0.0000000000
 C   -1.3063921456    0.1521468394    0.0000000000
 H   -2.9042235155   -1.1026677161   -0.0000000000
units bohr
0 2
}

basis {

assign 6-31g_2dfp_

[ 6-31g_2dfp_ ]

spherical

!----------------------------------------------------------------------
! Basis Set Exchange
! Version v0.8.13
! https://www.basissetexchange.org
!----------------------------------------------------------------------
!   Basis set: 6-31G(2df,p)
! Description: 6-31G(2df,p)
!        Role: orbital
!     Version: 0  (Data from the original Basis Set Exchange)
!----------------------------------------------------------------------

****
H     0
S    3   1.00
     18.7311370              0.03349460
      2.8253937              0.23472695
      0.6401217              0.81375733
S    1   1.00
      0.1612778              1.00000000
P    1   1.00
      1.5000000              1.0000000
P    1   1.00
      0.3750000              1.0000000
****
B     0
S    6   1.00
   2068.8823000              0.0018663
    310.6495700              0.0142515
     70.6830330              0.0695516
     19.8610800              0.2325729
      6.2993048              0.4670787
      2.1270270              0.3634314
SP   3   1.00
      4.7279710             -0.1303938              0.0745976
      1.1903377             -0.1307889              0.3078467
      0.3594117              1.1309444              0.7434568
SP   1   1.00
      0.1267512              1.0000000              1.0000000
D    1   1.00
      0.8020000              1.0000000
D    1   1.00
      0.2005000              1.0000000
F    1   1.00
      0.5000000              1.0000000
****
C     0
S    6   1.00
   3047.5249000              0.0018347
    457.3695100              0.0140373
    103.9486900              0.0688426
     29.2101550              0.2321844
      9.2866630              0.4679413
      3.1639270              0.3623120
SP   3   1.00
      7.8682724             -0.1193324              0.0689991
      1.8812885             -0.1608542              0.3164240
      0.5442493              1.1434564              0.7443083
SP   1   1.00
      0.1687144              1.0000000              1.0000000
D    1   1.00
      1.2520000              1.0000000
D    1   1.00
      0.3130000              1.0000000
F    1   1.00
      0.8000000              1.0000000
****
N     0
S    6   1.00
   4173.5110000              0.0018348
    627.4579000              0.0139950
    142.9021000              0.0685870
     40.2343300              0.2322410
     12.8202100              0.4690700
      4.3904370              0.3604550
SP   3   1.00
     11.6263580             -0.1149610              0.0675800
      2.7162800             -0.1691180              0.3239070
      0.7722180              1.1458520              0.7408950
SP   1   1.00
      0.2120313              1.0000000              1.0000000
D    1   1.00
      1.8260000              1.0000000
D    1   1.00
      0.4565000              1.0000000
F    1   1.00
      1.0000000              1.0000000
****
O     0
S    6   1.00
   5484.6717000              0.0018311
    825.2349500              0.0139501
    188.0469600              0.0684451
     52.9645000              0.2327143
     16.8975700              0.4701930
      5.7996353              0.3585209
SP   3   1.00
     15.5396160             -0.1107775              0.0708743
      3.5999336             -0.1480263              0.3397528
      1.0137618              1.1307670              0.7271586
SP   1   1.00
      0.2700058              1.0000000              1.0000000
D    1   1.00
      2.5840000              1.0000000
D    1   1.00
      0.6460000              1.0000000
F    1   1.00
      1.4000000              1.0000000
****
F     0
S    6   1.00
   7001.7130900              0.0018196169
   1051.3660900              0.0139160796
    239.2856900              0.0684053245
     67.3974453              0.233185760
     21.5199573              0.471267439
      7.40310130             0.356618546
SP   3   1.00
     20.8479528             -0.108506975            0.0716287243
      4.80830834            -0.146451658            0.3459121030
      1.34406986             1.128688580            0.7224699570
SP   1   1.00
      0.358151393            1.0000000              1.0000000
D    1   1.00
      3.5000000              1.0000000
D    1   1.00
      0.8750000              1.0000000
F    1   1.00
      1.8500000              1.0000000
****
Al     0
S    6   1.00
  13983.1000000              0.00194267
   2098.7500000              0.0148599
    477.7050000              0.0728494
    134.3600000              0.2468300
     42.8709000              0.4872580
     14.5189000              0.3234960
SP   6   1.00
    239.6680000             -0.00292619             0.00460285
     57.4419000             -0.0374080              0.0331990
     18.2859000             -0.1144870              0.1362820
      6.5991400              0.1156350              0.3304760
      2.4904900              0.6125950              0.4491460
      0.9445400              0.3937990              0.2657040
SP   3   1.00
      1.2779000             -0.2276060             -0.0175130
      0.3975900              0.00144583             0.2445330
      0.1600950              1.0927900              0.8049340
SP   1   1.00
      0.0556577              1.0000000              1.0000000
D    1   1.00
      0.6500000              1.0000000
D    1   1.00
      0.1625000              1.0000000
F    1   1.00
      0.2500000              1.0000000
****
Si     0
S    6   1.00
  16115.9000000              0.00195948
   2425.5800000              0.01492880
    553.8670000              0.07284780
    156.3400000              0.24613000
     50.0683000              0.48591400
     17.0178000              0.32500200
SP   6   1.00
    292.7180000             -0.00278094             0.00443826
     69.8731000             -0.03571460             0.03266790
     22.3363000             -0.11498500             0.13472100
      8.1503900              0.09356340             0.32867800
      3.1345800              0.60301700             0.44964000
      1.2254300              0.41895900             0.26137200
SP   3   1.00
      1.7273800             -0.24463000            -0.01779510
      0.5729220              0.00431572             0.25353900
      0.2221920              1.09818000             0.80066900
SP   1   1.00
      0.0778369              1.00000000             1.00000000
D    1   1.00
      0.9000000              1.0000000
D    1   1.00
      0.2250000              1.0000000
F    1   1.00
      0.3200000              1.0000000
****
P     0
S    6   1.00
  19413.3000000              0.0018516
   2909.4200000              0.0142062
    661.3640000              0.0699995
    185.7590000              0.2400790
     59.1943000              0.4847620
     20.0310000              0.3352000
SP   6   1.00
    339.4780000             -0.00278217             0.00456462
     81.0101000             -0.0360499              0.03369360
     25.8780000             -0.1166310              0.13975500
      9.4522100              0.0968328              0.33936200
      3.6656600              0.6144180              0.45092100
      1.4674600              0.4037980              0.23858600
SP   3   1.00
      2.1562300             -0.2529230             -0.01776530
      0.7489970              0.0328517              0.27405800
      0.2831450              1.0812500              0.78542100
SP   1   1.00
      0.0998317              1.0000000              1.00000000
D    1   1.00
      1.1000000              1.0000000
D    1   1.00
      0.2750000              1.0000000
F    1   1.00
      0.4500000              1.0000000
****
S     0
S    6   1.00
  21917.1000000              0.0018690
   3301.4900000              0.0142300
    754.1460000              0.0696960
    212.7110000              0.2384870
     67.9896000              0.4833070
     23.0515000              0.3380740
SP   6   1.00
    423.7350000             -0.0023767              0.0040610
    100.7100000             -0.0316930              0.0306810
     32.1599000             -0.1133170              0.1304520
     11.8079000              0.0560900              0.3272050
      4.6311000              0.5922550              0.4528510
      1.8702500              0.4550060              0.2560420
SP   3   1.00
      2.6158400             -0.2503740             -0.0145110
      0.9221670              0.0669570              0.3102630
      0.3412870              1.0545100              0.7544830
SP   1   1.00
      0.1171670              1.0000000              1.0000000
D    1   1.00
      1.3000000              1.0000000
D    1   1.00
      0.3250000              1.0000000
F    1   1.00
      0.5500000              1.0000000
****
Cl     0
S    6   1.00
  25180.1000000              0.0018330
   3780.3500000              0.0140340
    860.4740000              0.0690970
    242.1450000              0.2374520
     77.3349000              0.4830340
     26.2470000              0.3398560
SP   6   1.00
    491.7650000             -0.0022974              0.0039894
    116.9840000             -0.0307140              0.0303180
     37.4153000             -0.1125280              0.1298800
     13.7834000              0.0450160              0.3279510
      5.4521500              0.5893530              0.4535270
      2.2258800              0.4652060              0.2521540
SP   3   1.00
      3.1864900             -0.2518300             -0.0142990
      1.1442700              0.0615890              0.3235720
      0.4203770              1.0601800              0.7435070
SP   1   1.00
      0.1426570              1.0000000              1.0000000
D    1   1.00
      1.5000000              1.0000000
D    1   1.00
      0.3750000              1.0000000
F    1   1.00
      0.7000000              1.0000000
****
}

set {
reference uhf
freeze_core true
e_convergence 10
d_convergence 10
dft_spherical_points 1202
dft_radial_points 99
}

e = energy('b3lyp')

print_out('Grab this energy {0}'.format(e))
--------------------------------------------------------------------------

    Molecular point group: cs

    Geometry (in Bohr), charge = 0, multiplicity = 2:

       Center              X                  Y                   Z               Mass
    ------------   -----------------  -----------------  -----------------  -----------------
         C            1.172643083501    -0.041392491922     0.000000000000    12.000000000000
         H            2.094498415201    -1.877592920722     0.000000000000     1.007825032230
         H            2.399165886201     1.608056961478     0.000000000000     1.007825032230
         C           -1.306153017699     0.156289656778     0.000000000000    12.000000000000
         H           -2.903984387599    -1.098524898722     0.000000000000     1.007825032230

  Charge       = 0
  Multiplicity = 2
  Basis Set: ANONYMOUSCF658156
    Blend: 6-31G_2DFP_
  Basis Set: (ANONYMOUSCF658156 AUX)
    Blend: DEF2-UNIVERSAL-JKFIT

    Orbital Energies [Eh]
    ---------------------

    Alpha Occupied:

       1Ap   -10.203604     2Ap   -10.185174     3Ap    -0.761136
       4Ap    -0.573989     5Ap    -0.458161     6Ap    -0.426520
       1App   -0.278639     7Ap    -0.233885

    Alpha Virtual:

       2App    0.012811     8Ap     0.118276     9Ap     0.122791
      10Ap     0.184316    11Ap     0.306142    12Ap     0.413076
      13Ap     0.458393    14Ap     0.474006     3App    0.490422
       4App    0.512092    15Ap     0.514645    16Ap     0.593592
       5App    0.595674    17Ap     0.639322     6App    0.654894
      18Ap     0.670213    19Ap     0.708198     7App    0.735177
      20Ap     0.860065    21Ap     0.913453     8App    0.975552
      22Ap     0.987068    23Ap     1.042438     9App    1.049855
      24Ap     1.154818    10App    1.194845    25Ap     1.249928
      11App    1.330656    26Ap     1.474759    27Ap     1.545107
      28Ap     1.608845    29Ap     1.738054    30Ap     1.815838
      31Ap     1.996900    32Ap     2.327445    12App    2.650318
      13App    2.724310    33Ap     2.772325    34Ap     2.808801
      14App    2.850709    35Ap     2.869360    36Ap     2.953181
      15App    3.045530    37Ap     3.103501    16App    3.107108
      17App    3.140108    18App    3.174239    38Ap     3.192242
      39Ap     3.258773    40Ap     3.325718    41Ap     3.387949
      42Ap     3.400289    19App    3.570749    20App    3.653730
      43Ap     3.773491    44Ap     4.022718    21App    4.060595
      22App    4.151573    45Ap     4.204604    46Ap     4.247677
      23App    4.248936    24App    4.420592    47Ap     4.503973
      48Ap     4.536956    49Ap     4.777096    50Ap     5.100720
      51Ap     5.193201    52Ap     5.417907

    Beta Occupied:

       1Ap   -10.188374     2Ap   -10.186682     3Ap    -0.743854
       4Ap    -0.552350     5Ap    -0.443235     6Ap    -0.412652
       1App   -0.270741

    Beta Virtual:

       7Ap    -0.067167     2App    0.024644     8Ap     0.120842
       9Ap     0.133327    10Ap     0.190000    11Ap     0.315832
      12Ap     0.422466    13Ap     0.476140    14Ap     0.483173
       3App    0.494374     4App    0.520293    15Ap     0.565167
       5App    0.601034    16Ap     0.614429    17Ap     0.645859
       6App    0.663261    18Ap     0.685770    19Ap     0.721402
       7App    0.757821    20Ap     0.877755    21Ap     0.931203
       8App    0.978962    22Ap     0.992505    23Ap     1.050766
       9App    1.054443    24Ap     1.164725    10App    1.202856
      25Ap     1.267645    11App    1.339313    26Ap     1.488877
      27Ap     1.552710    28Ap     1.617716    29Ap     1.754646
      30Ap     1.831738    31Ap     2.011255    32Ap     2.349926
      12App    2.662055    13App    2.752825    33Ap     2.791803
      34Ap     2.851530    14App    2.861784    35Ap     2.880128
      36Ap     2.971866    15App    3.048135    16App    3.115117
      37Ap     3.120101    17App    3.159055    38Ap     3.209767
      18App    3.226540    39Ap     3.291235    40Ap     3.350171
      41Ap     3.401567    42Ap     3.434696    19App    3.590055
      20App    3.669997    43Ap     3.798130    44Ap     4.036717
      21App    4.069585    22App    4.160041    45Ap     4.215980
      23App    4.256898    46Ap     4.264456    24App    4.431057
      47Ap     4.526643    48Ap     4.562534    49Ap     4.791690
      50Ap     5.112636    51Ap     5.204444    52Ap     5.429706

    Final Occupation by Irrep:
             Ap   App
    DOCC [     6,    1 ]
    SOCC [     1,    0 ]

  @DF-UKS Final Energy:   -77.90782458728245

   => Energetics <=

    Nuclear Repulsion Energy =             28.3677591523219874
    One-Electron Energy =                -159.7012413620572602
    Two-Electron Energy =                  63.0538893524764603
    DFT Exchange-Correlation Energy =      -9.6282317300236286
    Empirical Dispersion Energy =           0.0000000000000000
    VV10 Nonlocal Energy =                  0.0000000000000000
    Total Energy =                        -77.9078245872824482

  UHF NO Occupations:
  HONO-2 :    6 Ap 1.9992634
  HONO-1 :    1App 1.9957221
  HONO-0 :    7 Ap 1.0000000
  LUNO+0 :    2App 0.0042779
  LUNO+1 :    8 Ap 0.0007366
  LUNO+2 :    9 Ap 0.0002331
  LUNO+3 :   10 Ap 0.0001334

Computation Completed

Properties will be evaluated at   0.000000,   0.000000,   0.000000 [a0]

Properties computed using the SCF density matrix

  Nuclear Dipole Moment: [e a0]
     X:     0.7886      Y:    -0.6787      Z:     0.0000

  Electronic Dipole Moment: [e a0]
     X:    -0.7046      Y:     0.4621      Z:     0.0000

  Dipole Moment: [e a0]
     X:     0.0840      Y:    -0.2166      Z:     0.0000     Total:     0.2323

  Dipole Moment: [D]
     X:     0.2136      Y:    -0.5506      Z:     0.0000     Total:     0.5906

*** tstop() called on n031 at Thu Nov  4 14:40:30 2021
Module time:
	user time   =      41.28 seconds =       0.69 minutes
	system time =       0.31 seconds =       0.01 minutes
	total time  =         42 seconds =       0.70 minutes
Total time:
	user time   =      41.28 seconds =       0.69 minutes
	system time =       0.31 seconds =       0.01 minutes
	total time  =         42 seconds =       0.70 minutes
Grab this energy -77.90782458728245
    Psi4 stopped on: Thursday, 04 November 2021 02:40PM
    Psi4 wall time for execution: 0:00:41.64

*** Psi4 exiting successfully. Buy a developer a beer!
