                               Psi4 1.4a2.dev629

  ==> Input File <==

--------------------------------------------------------------------------
import os
memory 14 GB

molecule {
 C    1.1729526006   -0.0426044542   -0.0022996704
 H    2.1010013129   -1.8891027322    0.0008510673
 H    2.3965982010    1.6012786487    0.0006380431
 C   -1.3114537742    0.1655888034    0.0010888704
 H   -2.9041240003   -1.1090380457   -0.0002783104
units bohr
0 2
}

basis {

assign 6-31g_2dfp_

[ 6-31g_2dfp_ ]

spherical

!----------------------------------------------------------------------
! Basis Set Exchange
! Version v0.8.13
! https://www.basissetexchange.org
!----------------------------------------------------------------------
!   Basis set: 6-31G(2df,p)
! Description: 6-31G(2df,p)
!        Role: orbital
!     Version: 0  (Data from the original Basis Set Exchange)
!----------------------------------------------------------------------

****
H     0
S    3   1.00
     18.7311370              0.03349460
      2.8253937              0.23472695
      0.6401217              0.81375733
S    1   1.00
      0.1612778              1.00000000
P    1   1.00
      1.5000000              1.0000000
P    1   1.00
      0.3750000              1.0000000
****
B     0
S    6   1.00
   2068.8823000              0.0018663
    310.6495700              0.0142515
     70.6830330              0.0695516
     19.8610800              0.2325729
      6.2993048              0.4670787
      2.1270270              0.3634314
SP   3   1.00
      4.7279710             -0.1303938              0.0745976
      1.1903377             -0.1307889              0.3078467
      0.3594117              1.1309444              0.7434568
SP   1   1.00
      0.1267512              1.0000000              1.0000000
D    1   1.00
      0.8020000              1.0000000
D    1   1.00
      0.2005000              1.0000000
F    1   1.00
      0.5000000              1.0000000
****
C     0
S    6   1.00
   3047.5249000              0.0018347
    457.3695100              0.0140373
    103.9486900              0.0688426
     29.2101550              0.2321844
      9.2866630              0.4679413
      3.1639270              0.3623120
SP   3   1.00
      7.8682724             -0.1193324              0.0689991
      1.8812885             -0.1608542              0.3164240
      0.5442493              1.1434564              0.7443083
SP   1   1.00
      0.1687144              1.0000000              1.0000000
D    1   1.00
      1.2520000              1.0000000
D    1   1.00
      0.3130000              1.0000000
F    1   1.00
      0.8000000              1.0000000
****
N     0
S    6   1.00
   4173.5110000              0.0018348
    627.4579000              0.0139950
    142.9021000              0.0685870
     40.2343300              0.2322410
     12.8202100              0.4690700
      4.3904370              0.3604550
SP   3   1.00
     11.6263580             -0.1149610              0.0675800
      2.7162800             -0.1691180              0.3239070
      0.7722180              1.1458520              0.7408950
SP   1   1.00
      0.2120313              1.0000000              1.0000000
D    1   1.00
      1.8260000              1.0000000
D    1   1.00
      0.4565000              1.0000000
F    1   1.00
      1.0000000              1.0000000
****
O     0
S    6   1.00
   5484.6717000              0.0018311
    825.2349500              0.0139501
    188.0469600              0.0684451
     52.9645000              0.2327143
     16.8975700              0.4701930
      5.7996353              0.3585209
SP   3   1.00
     15.5396160             -0.1107775              0.0708743
      3.5999336             -0.1480263              0.3397528
      1.0137618              1.1307670              0.7271586
SP   1   1.00
      0.2700058              1.0000000              1.0000000
D    1   1.00
      2.5840000              1.0000000
D    1   1.00
      0.6460000              1.0000000
F    1   1.00
      1.4000000              1.0000000
****
F     0
S    6   1.00
   7001.7130900              0.0018196169
   1051.3660900              0.0139160796
    239.2856900              0.0684053245
     67.3974453              0.233185760
     21.5199573              0.471267439
      7.40310130             0.356618546
SP   3   1.00
     20.8479528             -0.108506975            0.0716287243
      4.80830834            -0.146451658            0.3459121030
      1.34406986             1.128688580            0.7224699570
SP   1   1.00
      0.358151393            1.0000000              1.0000000
D    1   1.00
      3.5000000              1.0000000
D    1   1.00
      0.8750000              1.0000000
F    1   1.00
      1.8500000              1.0000000
****
Al     0
S    6   1.00
  13983.1000000              0.00194267
   2098.7500000              0.0148599
    477.7050000              0.0728494
    134.3600000              0.2468300
     42.8709000              0.4872580
     14.5189000              0.3234960
SP   6   1.00
    239.6680000             -0.00292619             0.00460285
     57.4419000             -0.0374080              0.0331990
     18.2859000             -0.1144870              0.1362820
      6.5991400              0.1156350              0.3304760
      2.4904900              0.6125950              0.4491460
      0.9445400              0.3937990              0.2657040
SP   3   1.00
      1.2779000             -0.2276060             -0.0175130
      0.3975900              0.00144583             0.2445330
      0.1600950              1.0927900              0.8049340
SP   1   1.00
      0.0556577              1.0000000              1.0000000
D    1   1.00
      0.6500000              1.0000000
D    1   1.00
      0.1625000              1.0000000
F    1   1.00
      0.2500000              1.0000000
****
Si     0
S    6   1.00
  16115.9000000              0.00195948
   2425.5800000              0.01492880
    553.8670000              0.07284780
    156.3400000              0.24613000
     50.0683000              0.48591400
     17.0178000              0.32500200
SP   6   1.00
    292.7180000             -0.00278094             0.00443826
     69.8731000             -0.03571460             0.03266790
     22.3363000             -0.11498500             0.13472100
      8.1503900              0.09356340             0.32867800
      3.1345800              0.60301700             0.44964000
      1.2254300              0.41895900             0.26137200
SP   3   1.00
      1.7273800             -0.24463000            -0.01779510
      0.5729220              0.00431572             0.25353900
      0.2221920              1.09818000             0.80066900
SP   1   1.00
      0.0778369              1.00000000             1.00000000
D    1   1.00
      0.9000000              1.0000000
D    1   1.00
      0.2250000              1.0000000
F    1   1.00
      0.3200000              1.0000000
****
P     0
S    6   1.00
  19413.3000000              0.0018516
   2909.4200000              0.0142062
    661.3640000              0.0699995
    185.7590000              0.2400790
     59.1943000              0.4847620
     20.0310000              0.3352000
SP   6   1.00
    339.4780000             -0.00278217             0.00456462
     81.0101000             -0.0360499              0.03369360
     25.8780000             -0.1166310              0.13975500
      9.4522100              0.0968328              0.33936200
      3.6656600              0.6144180              0.45092100
      1.4674600              0.4037980              0.23858600
SP   3   1.00
      2.1562300             -0.2529230             -0.01776530
      0.7489970              0.0328517              0.27405800
      0.2831450              1.0812500              0.78542100
SP   1   1.00
      0.0998317              1.0000000              1.00000000
D    1   1.00
      1.1000000              1.0000000
D    1   1.00
      0.2750000              1.0000000
F    1   1.00
      0.4500000              1.0000000
****
S     0
S    6   1.00
  21917.1000000              0.0018690
   3301.4900000              0.0142300
    754.1460000              0.0696960
    212.7110000              0.2384870
     67.9896000              0.4833070
     23.0515000              0.3380740
SP   6   1.00
    423.7350000             -0.0023767              0.0040610
    100.7100000             -0.0316930              0.0306810
     32.1599000             -0.1133170              0.1304520
     11.8079000              0.0560900              0.3272050
      4.6311000              0.5922550              0.4528510
      1.8702500              0.4550060              0.2560420
SP   3   1.00
      2.6158400             -0.2503740             -0.0145110
      0.9221670              0.0669570              0.3102630
      0.3412870              1.0545100              0.7544830
SP   1   1.00
      0.1171670              1.0000000              1.0000000
D    1   1.00
      1.3000000              1.0000000
D    1   1.00
      0.3250000              1.0000000
F    1   1.00
      0.5500000              1.0000000
****
Cl     0
S    6   1.00
  25180.1000000              0.0018330
   3780.3500000              0.0140340
    860.4740000              0.0690970
    242.1450000              0.2374520
     77.3349000              0.4830340
     26.2470000              0.3398560
SP   6   1.00
    491.7650000             -0.0022974              0.0039894
    116.9840000             -0.0307140              0.0303180
     37.4153000             -0.1125280              0.1298800
     13.7834000              0.0450160              0.3279510
      5.4521500              0.5893530              0.4535270
      2.2258800              0.4652060              0.2521540
SP   3   1.00
      3.1864900             -0.2518300             -0.0142990
      1.1442700              0.0615890              0.3235720
      0.4203770              1.0601800              0.7435070
SP   1   1.00
      0.1426570              1.0000000              1.0000000
D    1   1.00
      1.5000000              1.0000000
D    1   1.00
      0.3750000              1.0000000
F    1   1.00
      0.7000000              1.0000000
****
}

set {
reference uhf
freeze_core true
e_convergence 10
d_convergence 10
dft_spherical_points 1202
dft_radial_points 99
}

e = energy('b3lyp')

print_out('Grab this energy {0}'.format(e))
--------------------------------------------------------------------------

    Molecular point group: c1

    Geometry (in Bohr), charge = 0, multiplicity = 2:

       Center              X                  Y                   Z               Mass
    ------------   -----------------  -----------------  -----------------  -----------------
         C            1.175027447456    -0.045121509086    -0.001807160632    12.000000000000
         H            2.103076159756    -1.891619787086     0.001343577068     1.007825032230
         H            2.398673047856     1.598761593814     0.001130552868     1.007825032230
         C           -1.309378927344     0.163071748514     0.001581380168    12.000000000000
         H           -2.902049153444    -1.111555100586     0.000214199368     1.007825032230

  Charge       = 0
  Multiplicity = 2
  Basis Set: ANONYMOUS8725247B
    Blend: 6-31G_2DFP_
  Basis Set: (ANONYMOUS8725247B AUX)
    Blend: DEF2-UNIVERSAL-JKFIT

    Orbital Energies [Eh]
    ---------------------

    Alpha Occupied:

       1A    -10.204867     2A    -10.185896     3A     -0.760295
       4A     -0.573465     5A     -0.457146     6A     -0.425638
       7A     -0.278182     8A     -0.235470

    Alpha Virtual:

       9A      0.012020    10A      0.117412    11A      0.122392
      12A      0.183921    13A      0.305388    14A      0.413429
      15A      0.458023    16A      0.473629    17A      0.490554
      18A      0.512219    19A      0.513980    20A      0.590930
      21A      0.595672    22A      0.639030    23A      0.654687
      24A      0.669083    25A      0.705598    26A      0.733637
      27A      0.858038    28A      0.913189    29A      0.976678
      30A      0.987519    31A      1.045318    32A      1.046596
      33A      1.153187    34A      1.193287    35A      1.247932
      36A      1.327423    37A      1.472939    38A      1.541471
      39A      1.604383    40A      1.733306    41A      1.805859
      42A      1.996967    43A      2.315209    44A      2.648772
      45A      2.724047    46A      2.771003    47A      2.812063
      48A      2.849498    49A      2.869447    50A      2.956138
      51A      3.046831    52A      3.103252    53A      3.107547
      54A      3.145713    55A      3.175280    56A      3.192275
      57A      3.255147    58A      3.320790    59A      3.387702
      60A      3.397920    61A      3.570386    62A      3.649346
      63A      3.767655    64A      4.019372    65A      4.056078
      66A      4.146543    67A      4.198200    68A      4.243696
      69A      4.250376    70A      4.410372    71A      4.500296
      72A      4.522630    73A      4.766993    74A      5.092301
      75A      5.192300    76A      5.406591

    Beta Occupied:

       1A    -10.189561     2A    -10.187438     3A     -0.743101
       4A     -0.551914     5A     -0.442149     6A     -0.411849
       7A     -0.270255

    Beta Virtual:

       8A     -0.068486     9A      0.023946    10A      0.120383
      11A      0.132549    12A      0.189631    13A      0.315320
      14A      0.422774    15A      0.475971    16A      0.482199
      17A      0.494567    18A      0.520333    19A      0.564693
      20A      0.601135    21A      0.611685    22A      0.645809
      23A      0.663122    24A      0.684254    25A      0.718863
      26A      0.755967    27A      0.875552    28A      0.931045
      29A      0.980133    30A      0.992894    31A      1.051303
      32A      1.053616    33A      1.163103    34A      1.201271
      35A      1.265727    36A      1.336208    37A      1.487222
      38A      1.549091    39A      1.613283    40A      1.750403
      41A      1.821484    42A      2.011103    43A      2.337639
      44A      2.660280    45A      2.752456    46A      2.790488
      47A      2.854156    48A      2.860842    49A      2.880560
      50A      2.974789    51A      3.049587    52A      3.115279
      53A      3.119735    54A      3.164138    55A      3.208892
      56A      3.228446    57A      3.287330    58A      3.345307
      59A      3.404374    60A      3.430102    61A      3.589680
      62A      3.665674    63A      3.792757    64A      4.033331
      65A      4.065132    66A      4.155304    67A      4.209968
      68A      4.251308    69A      4.267462    70A      4.420976
      71A      4.523010    72A      4.548205    73A      4.781519
      74A      5.104548    75A      5.203109    76A      5.418403

    Final Occupation by Irrep:
              A
    DOCC [     7 ]
    SOCC [     1 ]

  @DF-UKS Final Energy:   -77.90775283988268

   => Energetics <=

    Nuclear Repulsion Energy =             28.3020253700814806
    One-Electron Energy =                -159.5740587571289097
    Two-Electron Energy =                  62.9886864284603831
    DFT Exchange-Correlation Energy =      -9.6244058812956297
    Empirical Dispersion Energy =           0.0000000000000000
    VV10 Nonlocal Energy =                  0.0000000000000000
    Total Energy =                        -77.9077528398826757

  UHF NO Occupations:
  HONO-2 :    6  A 1.9992694
  HONO-1 :    7  A 1.9955929
  HONO-0 :    8  A 1.0000000
  LUNO+0 :    9  A 0.0044071
  LUNO+1 :   10  A 0.0007306
  LUNO+2 :   11  A 0.0002334
  LUNO+3 :   12  A 0.0001347

Computation Completed

Properties will be evaluated at   0.000000,   0.000000,   0.000000 [a0]

Properties computed using the SCF density matrix

  Nuclear Dipole Moment: [e a0]
     X:     0.7936      Y:    -0.6967      Z:     0.0013

  Electronic Dipole Moment: [e a0]
     X:    -0.7064      Y:     0.4790      Z:    -0.0009

  Dipole Moment: [e a0]
     X:     0.0871      Y:    -0.2177      Z:     0.0004     Total:     0.2345

  Dipole Moment: [D]
     X:     0.2215      Y:    -0.5534      Z:     0.0011     Total:     0.5961

*** tstop() called on n056 at Thu Nov  4 14:36:35 2021
Module time:
	user time   =      32.06 seconds =       0.53 minutes
	system time =       0.40 seconds =       0.01 minutes
	total time  =         33 seconds =       0.55 minutes
Total time:
	user time   =      32.06 seconds =       0.53 minutes
	system time =       0.40 seconds =       0.01 minutes
	total time  =         33 seconds =       0.55 minutes
Grab this energy -77.90775283988268
    Psi4 stopped on: Thursday, 04 November 2021 02:36PM
    Psi4 wall time for execution: 0:00:32.48

*** Psi4 exiting successfully. Buy a developer a beer!
