                               Psi4 1.4a2.dev629

  ==> Input File <==

--------------------------------------------------------------------------
import os
memory 14 GB

molecule {
 C    1.1714405413   -0.0400308130   -0.0015121397
 H    2.0848027905   -1.8853389132   -0.0000601086
 H    2.4004866251    1.6016225108    0.0023865177
 C   -1.3063624129    0.1636099199   -0.0038693280
 H   -2.8953932040   -1.1137404845    0.0030550586
units bohr
0 2
}

basis {

assign 6-31g_2dfp_

[ 6-31g_2dfp_ ]

spherical

!----------------------------------------------------------------------
! Basis Set Exchange
! Version v0.8.13
! https://www.basissetexchange.org
!----------------------------------------------------------------------
!   Basis set: 6-31G(2df,p)
! Description: 6-31G(2df,p)
!        Role: orbital
!     Version: 0  (Data from the original Basis Set Exchange)
!----------------------------------------------------------------------

****
H     0
S    3   1.00
     18.7311370              0.03349460
      2.8253937              0.23472695
      0.6401217              0.81375733
S    1   1.00
      0.1612778              1.00000000
P    1   1.00
      1.5000000              1.0000000
P    1   1.00
      0.3750000              1.0000000
****
B     0
S    6   1.00
   2068.8823000              0.0018663
    310.6495700              0.0142515
     70.6830330              0.0695516
     19.8610800              0.2325729
      6.2993048              0.4670787
      2.1270270              0.3634314
SP   3   1.00
      4.7279710             -0.1303938              0.0745976
      1.1903377             -0.1307889              0.3078467
      0.3594117              1.1309444              0.7434568
SP   1   1.00
      0.1267512              1.0000000              1.0000000
D    1   1.00
      0.8020000              1.0000000
D    1   1.00
      0.2005000              1.0000000
F    1   1.00
      0.5000000              1.0000000
****
C     0
S    6   1.00
   3047.5249000              0.0018347
    457.3695100              0.0140373
    103.9486900              0.0688426
     29.2101550              0.2321844
      9.2866630              0.4679413
      3.1639270              0.3623120
SP   3   1.00
      7.8682724             -0.1193324              0.0689991
      1.8812885             -0.1608542              0.3164240
      0.5442493              1.1434564              0.7443083
SP   1   1.00
      0.1687144              1.0000000              1.0000000
D    1   1.00
      1.2520000              1.0000000
D    1   1.00
      0.3130000              1.0000000
F    1   1.00
      0.8000000              1.0000000
****
N     0
S    6   1.00
   4173.5110000              0.0018348
    627.4579000              0.0139950
    142.9021000              0.0685870
     40.2343300              0.2322410
     12.8202100              0.4690700
      4.3904370              0.3604550
SP   3   1.00
     11.6263580             -0.1149610              0.0675800
      2.7162800             -0.1691180              0.3239070
      0.7722180              1.1458520              0.7408950
SP   1   1.00
      0.2120313              1.0000000              1.0000000
D    1   1.00
      1.8260000              1.0000000
D    1   1.00
      0.4565000              1.0000000
F    1   1.00
      1.0000000              1.0000000
****
O     0
S    6   1.00
   5484.6717000              0.0018311
    825.2349500              0.0139501
    188.0469600              0.0684451
     52.9645000              0.2327143
     16.8975700              0.4701930
      5.7996353              0.3585209
SP   3   1.00
     15.5396160             -0.1107775              0.0708743
      3.5999336             -0.1480263              0.3397528
      1.0137618              1.1307670              0.7271586
SP   1   1.00
      0.2700058              1.0000000              1.0000000
D    1   1.00
      2.5840000              1.0000000
D    1   1.00
      0.6460000              1.0000000
F    1   1.00
      1.4000000              1.0000000
****
F     0
S    6   1.00
   7001.7130900              0.0018196169
   1051.3660900              0.0139160796
    239.2856900              0.0684053245
     67.3974453              0.233185760
     21.5199573              0.471267439
      7.40310130             0.356618546
SP   3   1.00
     20.8479528             -0.108506975            0.0716287243
      4.80830834            -0.146451658            0.3459121030
      1.34406986             1.128688580            0.7224699570
SP   1   1.00
      0.358151393            1.0000000              1.0000000
D    1   1.00
      3.5000000              1.0000000
D    1   1.00
      0.8750000              1.0000000
F    1   1.00
      1.8500000              1.0000000
****
Al     0
S    6   1.00
  13983.1000000              0.00194267
   2098.7500000              0.0148599
    477.7050000              0.0728494
    134.3600000              0.2468300
     42.8709000              0.4872580
     14.5189000              0.3234960
SP   6   1.00
    239.6680000             -0.00292619             0.00460285
     57.4419000             -0.0374080              0.0331990
     18.2859000             -0.1144870              0.1362820
      6.5991400              0.1156350              0.3304760
      2.4904900              0.6125950              0.4491460
      0.9445400              0.3937990              0.2657040
SP   3   1.00
      1.2779000             -0.2276060             -0.0175130
      0.3975900              0.00144583             0.2445330
      0.1600950              1.0927900              0.8049340
SP   1   1.00
      0.0556577              1.0000000              1.0000000
D    1   1.00
      0.6500000              1.0000000
D    1   1.00
      0.1625000              1.0000000
F    1   1.00
      0.2500000              1.0000000
****
Si     0
S    6   1.00
  16115.9000000              0.00195948
   2425.5800000              0.01492880
    553.8670000              0.07284780
    156.3400000              0.24613000
     50.0683000              0.48591400
     17.0178000              0.32500200
SP   6   1.00
    292.7180000             -0.00278094             0.00443826
     69.8731000             -0.03571460             0.03266790
     22.3363000             -0.11498500             0.13472100
      8.1503900              0.09356340             0.32867800
      3.1345800              0.60301700             0.44964000
      1.2254300              0.41895900             0.26137200
SP   3   1.00
      1.7273800             -0.24463000            -0.01779510
      0.5729220              0.00431572             0.25353900
      0.2221920              1.09818000             0.80066900
SP   1   1.00
      0.0778369              1.00000000             1.00000000
D    1   1.00
      0.9000000              1.0000000
D    1   1.00
      0.2250000              1.0000000
F    1   1.00
      0.3200000              1.0000000
****
P     0
S    6   1.00
  19413.3000000              0.0018516
   2909.4200000              0.0142062
    661.3640000              0.0699995
    185.7590000              0.2400790
     59.1943000              0.4847620
     20.0310000              0.3352000
SP   6   1.00
    339.4780000             -0.00278217             0.00456462
     81.0101000             -0.0360499              0.03369360
     25.8780000             -0.1166310              0.13975500
      9.4522100              0.0968328              0.33936200
      3.6656600              0.6144180              0.45092100
      1.4674600              0.4037980              0.23858600
SP   3   1.00
      2.1562300             -0.2529230             -0.01776530
      0.7489970              0.0328517              0.27405800
      0.2831450              1.0812500              0.78542100
SP   1   1.00
      0.0998317              1.0000000              1.00000000
D    1   1.00
      1.1000000              1.0000000
D    1   1.00
      0.2750000              1.0000000
F    1   1.00
      0.4500000              1.0000000
****
S     0
S    6   1.00
  21917.1000000              0.0018690
   3301.4900000              0.0142300
    754.1460000              0.0696960
    212.7110000              0.2384870
     67.9896000              0.4833070
     23.0515000              0.3380740
SP   6   1.00
    423.7350000             -0.0023767              0.0040610
    100.7100000             -0.0316930              0.0306810
     32.1599000             -0.1133170              0.1304520
     11.8079000              0.0560900              0.3272050
      4.6311000              0.5922550              0.4528510
      1.8702500              0.4550060              0.2560420
SP   3   1.00
      2.6158400             -0.2503740             -0.0145110
      0.9221670              0.0669570              0.3102630
      0.3412870              1.0545100              0.7544830
SP   1   1.00
      0.1171670              1.0000000              1.0000000
D    1   1.00
      1.3000000              1.0000000
D    1   1.00
      0.3250000              1.0000000
F    1   1.00
      0.5500000              1.0000000
****
Cl     0
S    6   1.00
  25180.1000000              0.0018330
   3780.3500000              0.0140340
    860.4740000              0.0690970
    242.1450000              0.2374520
     77.3349000              0.4830340
     26.2470000              0.3398560
SP   6   1.00
    491.7650000             -0.0022974              0.0039894
    116.9840000             -0.0307140              0.0303180
     37.4153000             -0.1125280              0.1298800
     13.7834000              0.0450160              0.3279510
      5.4521500              0.5893530              0.4535270
      2.2258800              0.4652060              0.2521540
SP   3   1.00
      3.1864900             -0.2518300             -0.0142990
      1.1442700              0.0615890              0.3235720
      0.4203770              1.0601800              0.7435070
SP   1   1.00
      0.1426570              1.0000000              1.0000000
D    1   1.00
      1.5000000              1.0000000
D    1   1.00
      0.3750000              1.0000000
F    1   1.00
      0.7000000              1.0000000
****
}

set {
reference uhf
freeze_core true
e_convergence 10
d_convergence 10
dft_spherical_points 1202
dft_radial_points 99
}

e = energy('b3lyp')

print_out('Grab this energy {0}'.format(e))
--------------------------------------------------------------------------

    Molecular point group: c1

    Geometry (in Bohr), charge = 0, multiplicity = 2:

       Center              X                  Y                   Z               Mass
    ------------   -----------------  -----------------  -----------------  -----------------
         C            1.172059457203    -0.042789793866     0.000676847258    12.000000000000
         H            2.085421706403    -1.888097894066     0.002128878358     1.007825032230
         H            2.401105541003     1.598863529934     0.004575504658     1.007825032230
         C           -1.305743496997     0.160850939034    -0.001680341042    12.000000000000
         H           -2.894774288097    -1.116499465366     0.005244045558     1.007825032230

  Charge       = 0
  Multiplicity = 2
  Basis Set: ANONYMOUSAD3449BA
    Blend: 6-31G_2DFP_
  Basis Set: (ANONYMOUSAD3449BA AUX)
    Blend: DEF2-UNIVERSAL-JKFIT

    Orbital Energies [Eh]
    ---------------------

    Alpha Occupied:

       1A    -10.204046     2A    -10.185038     3A     -0.761321
       4A     -0.573244     5A     -0.457788     6A     -0.426202
       7A     -0.278747     8A     -0.234890

    Alpha Virtual:

       9A      0.012899    10A      0.117779    11A      0.122449
      12A      0.184516    13A      0.305759    14A      0.413540
      15A      0.457823    16A      0.474403    17A      0.490225
      18A      0.511813    19A      0.514477    20A      0.592614
      21A      0.595657    22A      0.639380    23A      0.654829
      24A      0.669011    25A      0.706930    26A      0.735635
      27A      0.859666    28A      0.913896    29A      0.976493
      30A      0.989900    31A      1.041760    32A      1.047439
      33A      1.156051    34A      1.195608    35A      1.248799
      36A      1.328282    37A      1.475744    38A      1.542993
      39A      1.607832    40A      1.735538    41A      1.810349
      42A      1.998996    43A      2.317364    44A      2.650291
      45A      2.724133    46A      2.773447    47A      2.811437
      48A      2.850134    49A      2.869895    50A      2.952361
      51A      3.046270    52A      3.102594    53A      3.107876
      54A      3.141592    55A      3.174062    56A      3.195520
      57A      3.258104    58A      3.322326    59A      3.388468
      60A      3.400239    61A      3.573084    62A      3.654907
      63A      3.774816    64A      4.020137    65A      4.059371
      66A      4.148024    67A      4.203381    68A      4.249484
      69A      4.254494    70A      4.413946    71A      4.506994
      72A      4.522392    73A      4.773251    74A      5.095726
      75A      5.196126    76A      5.414976

    Beta Occupied:

       1A    -10.188773     2A    -10.186555     3A     -0.744115
       4A     -0.551686     5A     -0.442679     6A     -0.412374
       7A     -0.270830

    Beta Virtual:

       8A     -0.068036     9A      0.024813    10A      0.120724
      11A      0.132615    12A      0.190200    13A      0.315607
      14A      0.422874    15A      0.475853    16A      0.483175
      17A      0.494228    18A      0.519993    19A      0.564890
      20A      0.601086    21A      0.613571    22A      0.646105
      23A      0.663290    24A      0.684148    25A      0.720096
      26A      0.757979    27A      0.877211    28A      0.931682
      29A      0.979962    30A      0.995286    31A      1.050078
      32A      1.052127    33A      1.166063    34A      1.203686
      35A      1.266638    36A      1.337033    37A      1.490011
      38A      1.550618    39A      1.616719    40A      1.752631
      41A      1.826062    42A      2.013314    43A      2.339811
      44A      2.662013    45A      2.752371    46A      2.793095
      47A      2.853502    48A      2.861328    49A      2.880640
      50A      2.971389    51A      3.048933    52A      3.115526
      53A      3.119204    54A      3.159861    55A      3.212368
      56A      3.227448    57A      3.290954    58A      3.346796
      59A      3.403330    60A      3.433210    61A      3.592365
      62A      3.671343    63A      3.799864    64A      4.034012
      65A      4.068445    66A      4.156705    67A      4.214935
      68A      4.257517    69A      4.271282    70A      4.424507
      71A      4.529937    72A      4.548050    73A      4.787869
      74A      5.107839    75A      5.207125    76A      5.426869

    Final Occupation by Irrep:
              A
    DOCC [     7 ]
    SOCC [     1 ]

  @DF-UKS Final Energy:   -77.90782620605209

   => Energetics <=

    Nuclear Repulsion Energy =             28.3648429689197101
    One-Electron Energy =                -159.6966440841661665
    Two-Electron Energy =                  63.0514659274530089
    DFT Exchange-Correlation Energy =      -9.6274910182586382
    Empirical Dispersion Energy =           0.0000000000000000
    VV10 Nonlocal Energy =                  0.0000000000000000
    Total Energy =                        -77.9078262060520927

  UHF NO Occupations:
  HONO-2 :    6  A 1.9992705
  HONO-1 :    7  A 1.9957212
  HONO-0 :    8  A 1.0000000
  LUNO+0 :    9  A 0.0042788
  LUNO+1 :   10  A 0.0007295
  LUNO+2 :   11  A 0.0002298
  LUNO+3 :   12  A 0.0001335

Computation Completed

Properties will be evaluated at   0.000000,   0.000000,   0.000000 [a0]

Properties computed using the SCF density matrix

  Nuclear Dipole Moment: [e a0]
     X:     0.7896      Y:    -0.6974      Z:     0.0059

  Electronic Dipole Moment: [e a0]
     X:    -0.7018      Y:     0.4789      Z:    -0.0039

  Dipole Moment: [e a0]
     X:     0.0879      Y:    -0.2185      Z:     0.0020     Total:     0.2355

  Dipole Moment: [D]
     X:     0.2234      Y:    -0.5554      Z:     0.0051     Total:     0.5986

*** tstop() called on n082 at Thu Nov  4 14:39:32 2021
Module time:
	user time   =      29.30 seconds =       0.49 minutes
	system time =       0.37 seconds =       0.01 minutes
	total time  =         30 seconds =       0.50 minutes
Total time:
	user time   =      29.30 seconds =       0.49 minutes
	system time =       0.37 seconds =       0.01 minutes
	total time  =         30 seconds =       0.50 minutes
Grab this energy -77.90782620605209
    Psi4 stopped on: Thursday, 04 November 2021 02:39PM
    Psi4 wall time for execution: 0:00:29.72

*** Psi4 exiting successfully. Buy a developer a beer!
