                               Psi4 1.4a2.dev629

  ==> Input File <==

--------------------------------------------------------------------------
import os
memory 14 GB

molecule {
 C    1.1774569892   -0.0469334408    0.0000000000
 H    2.1081611929   -1.8925241525   -0.0000000000
 H    2.3939839419    1.6102298019   -0.0000000000
 C   -1.3074657646    0.1558939363   -0.0000000000
 H   -2.9171620194   -1.1005439250   -0.0000000000
units bohr
0 2
}

basis {

assign 6-31g_2dfp_

[ 6-31g_2dfp_ ]

spherical

!----------------------------------------------------------------------
! Basis Set Exchange
! Version v0.8.13
! https://www.basissetexchange.org
!----------------------------------------------------------------------
!   Basis set: 6-31G(2df,p)
! Description: 6-31G(2df,p)
!        Role: orbital
!     Version: 0  (Data from the original Basis Set Exchange)
!----------------------------------------------------------------------

****
H     0
S    3   1.00
     18.7311370              0.03349460
      2.8253937              0.23472695
      0.6401217              0.81375733
S    1   1.00
      0.1612778              1.00000000
P    1   1.00
      1.5000000              1.0000000
P    1   1.00
      0.3750000              1.0000000
****
B     0
S    6   1.00
   2068.8823000              0.0018663
    310.6495700              0.0142515
     70.6830330              0.0695516
     19.8610800              0.2325729
      6.2993048              0.4670787
      2.1270270              0.3634314
SP   3   1.00
      4.7279710             -0.1303938              0.0745976
      1.1903377             -0.1307889              0.3078467
      0.3594117              1.1309444              0.7434568
SP   1   1.00
      0.1267512              1.0000000              1.0000000
D    1   1.00
      0.8020000              1.0000000
D    1   1.00
      0.2005000              1.0000000
F    1   1.00
      0.5000000              1.0000000
****
C     0
S    6   1.00
   3047.5249000              0.0018347
    457.3695100              0.0140373
    103.9486900              0.0688426
     29.2101550              0.2321844
      9.2866630              0.4679413
      3.1639270              0.3623120
SP   3   1.00
      7.8682724             -0.1193324              0.0689991
      1.8812885             -0.1608542              0.3164240
      0.5442493              1.1434564              0.7443083
SP   1   1.00
      0.1687144              1.0000000              1.0000000
D    1   1.00
      1.2520000              1.0000000
D    1   1.00
      0.3130000              1.0000000
F    1   1.00
      0.8000000              1.0000000
****
N     0
S    6   1.00
   4173.5110000              0.0018348
    627.4579000              0.0139950
    142.9021000              0.0685870
     40.2343300              0.2322410
     12.8202100              0.4690700
      4.3904370              0.3604550
SP   3   1.00
     11.6263580             -0.1149610              0.0675800
      2.7162800             -0.1691180              0.3239070
      0.7722180              1.1458520              0.7408950
SP   1   1.00
      0.2120313              1.0000000              1.0000000
D    1   1.00
      1.8260000              1.0000000
D    1   1.00
      0.4565000              1.0000000
F    1   1.00
      1.0000000              1.0000000
****
O     0
S    6   1.00
   5484.6717000              0.0018311
    825.2349500              0.0139501
    188.0469600              0.0684451
     52.9645000              0.2327143
     16.8975700              0.4701930
      5.7996353              0.3585209
SP   3   1.00
     15.5396160             -0.1107775              0.0708743
      3.5999336             -0.1480263              0.3397528
      1.0137618              1.1307670              0.7271586
SP   1   1.00
      0.2700058              1.0000000              1.0000000
D    1   1.00
      2.5840000              1.0000000
D    1   1.00
      0.6460000              1.0000000
F    1   1.00
      1.4000000              1.0000000
****
F     0
S    6   1.00
   7001.7130900              0.0018196169
   1051.3660900              0.0139160796
    239.2856900              0.0684053245
     67.3974453              0.233185760
     21.5199573              0.471267439
      7.40310130             0.356618546
SP   3   1.00
     20.8479528             -0.108506975            0.0716287243
      4.80830834            -0.146451658            0.3459121030
      1.34406986             1.128688580            0.7224699570
SP   1   1.00
      0.358151393            1.0000000              1.0000000
D    1   1.00
      3.5000000              1.0000000
D    1   1.00
      0.8750000              1.0000000
F    1   1.00
      1.8500000              1.0000000
****
Al     0
S    6   1.00
  13983.1000000              0.00194267
   2098.7500000              0.0148599
    477.7050000              0.0728494
    134.3600000              0.2468300
     42.8709000              0.4872580
     14.5189000              0.3234960
SP   6   1.00
    239.6680000             -0.00292619             0.00460285
     57.4419000             -0.0374080              0.0331990
     18.2859000             -0.1144870              0.1362820
      6.5991400              0.1156350              0.3304760
      2.4904900              0.6125950              0.4491460
      0.9445400              0.3937990              0.2657040
SP   3   1.00
      1.2779000             -0.2276060             -0.0175130
      0.3975900              0.00144583             0.2445330
      0.1600950              1.0927900              0.8049340
SP   1   1.00
      0.0556577              1.0000000              1.0000000
D    1   1.00
      0.6500000              1.0000000
D    1   1.00
      0.1625000              1.0000000
F    1   1.00
      0.2500000              1.0000000
****
Si     0
S    6   1.00
  16115.9000000              0.00195948
   2425.5800000              0.01492880
    553.8670000              0.07284780
    156.3400000              0.24613000
     50.0683000              0.48591400
     17.0178000              0.32500200
SP   6   1.00
    292.7180000             -0.00278094             0.00443826
     69.8731000             -0.03571460             0.03266790
     22.3363000             -0.11498500             0.13472100
      8.1503900              0.09356340             0.32867800
      3.1345800              0.60301700             0.44964000
      1.2254300              0.41895900             0.26137200
SP   3   1.00
      1.7273800             -0.24463000            -0.01779510
      0.5729220              0.00431572             0.25353900
      0.2221920              1.09818000             0.80066900
SP   1   1.00
      0.0778369              1.00000000             1.00000000
D    1   1.00
      0.9000000              1.0000000
D    1   1.00
      0.2250000              1.0000000
F    1   1.00
      0.3200000              1.0000000
****
P     0
S    6   1.00
  19413.3000000              0.0018516
   2909.4200000              0.0142062
    661.3640000              0.0699995
    185.7590000              0.2400790
     59.1943000              0.4847620
     20.0310000              0.3352000
SP   6   1.00
    339.4780000             -0.00278217             0.00456462
     81.0101000             -0.0360499              0.03369360
     25.8780000             -0.1166310              0.13975500
      9.4522100              0.0968328              0.33936200
      3.6656600              0.6144180              0.45092100
      1.4674600              0.4037980              0.23858600
SP   3   1.00
      2.1562300             -0.2529230             -0.01776530
      0.7489970              0.0328517              0.27405800
      0.2831450              1.0812500              0.78542100
SP   1   1.00
      0.0998317              1.0000000              1.00000000
D    1   1.00
      1.1000000              1.0000000
D    1   1.00
      0.2750000              1.0000000
F    1   1.00
      0.4500000              1.0000000
****
S     0
S    6   1.00
  21917.1000000              0.0018690
   3301.4900000              0.0142300
    754.1460000              0.0696960
    212.7110000              0.2384870
     67.9896000              0.4833070
     23.0515000              0.3380740
SP   6   1.00
    423.7350000             -0.0023767              0.0040610
    100.7100000             -0.0316930              0.0306810
     32.1599000             -0.1133170              0.1304520
     11.8079000              0.0560900              0.3272050
      4.6311000              0.5922550              0.4528510
      1.8702500              0.4550060              0.2560420
SP   3   1.00
      2.6158400             -0.2503740             -0.0145110
      0.9221670              0.0669570              0.3102630
      0.3412870              1.0545100              0.7544830
SP   1   1.00
      0.1171670              1.0000000              1.0000000
D    1   1.00
      1.3000000              1.0000000
D    1   1.00
      0.3250000              1.0000000
F    1   1.00
      0.5500000              1.0000000
****
Cl     0
S    6   1.00
  25180.1000000              0.0018330
   3780.3500000              0.0140340
    860.4740000              0.0690970
    242.1450000              0.2374520
     77.3349000              0.4830340
     26.2470000              0.3398560
SP   6   1.00
    491.7650000             -0.0022974              0.0039894
    116.9840000             -0.0307140              0.0303180
     37.4153000             -0.1125280              0.1298800
     13.7834000              0.0450160              0.3279510
      5.4521500              0.5893530              0.4535270
      2.2258800              0.4652060              0.2521540
SP   3   1.00
      3.1864900             -0.2518300             -0.0142990
      1.1442700              0.0615890              0.3235720
      0.4203770              1.0601800              0.7435070
SP   1   1.00
      0.1426570              1.0000000              1.0000000
D    1   1.00
      1.5000000              1.0000000
D    1   1.00
      0.3750000              1.0000000
F    1   1.00
      0.7000000              1.0000000
****
}

set {
reference uhf
freeze_core true
e_convergence 10
d_convergence 10
dft_spherical_points 1202
dft_radial_points 99
}

e = energy('b3lyp')

print_out('Grab this energy {0}'.format(e))
--------------------------------------------------------------------------

    Molecular point group: cs

    Geometry (in Bohr), charge = 0, multiplicity = 2:

       Center              X                  Y                   Z               Mass
    ------------   -----------------  -----------------  -----------------  -----------------
         C            1.176077434778    -0.043746097819     0.000000000000    12.000000000000
         H            2.106781638478    -1.889336809519     0.000000000000     1.007825032230
         H            2.392604387478     1.613417144881     0.000000000000     1.007825032230
         C           -1.308845319022     0.159081279281     0.000000000000    12.000000000000
         H           -2.918541573822    -1.097356582019     0.000000000000     1.007825032230

  Charge       = 0
  Multiplicity = 2
  Basis Set: ANONYMOUS938D5170
    Blend: 6-31G_2DFP_
  Basis Set: (ANONYMOUS938D5170 AUX)
    Blend: DEF2-UNIVERSAL-JKFIT

    Orbital Energies [Eh]
    ---------------------

    Alpha Occupied:

       1Ap   -10.204741     2Ap   -10.186324     3Ap    -0.760012
       4Ap    -0.573019     5Ap    -0.457071     6Ap    -0.425773
       1App   -0.278103     7Ap    -0.234301

    Alpha Virtual:

       2App    0.012081     8Ap     0.117311     9Ap     0.121544
      10Ap     0.183419    11Ap     0.305169    12Ap     0.412514
      13Ap     0.458751    14Ap     0.473169     3App    0.490586
       4App    0.512037    15Ap     0.514050    16Ap     0.591510
       5App    0.595267    17Ap     0.638406     6App    0.654750
      18Ap     0.668995    19Ap     0.706109     7App    0.733657
      20Ap     0.857751    21Ap     0.913377     8App    0.974823
      22Ap     0.982526    23Ap     1.044079     9App    1.046769
      24Ap     1.152152    10App    1.192528    25Ap     1.248226
      11App    1.329003    26Ap     1.471087    27Ap     1.541306
      28Ap     1.602256    29Ap     1.731693    30Ap     1.808900
      31Ap     1.993470    32Ap     2.321018    12App    2.649278
      13App    2.723991    33Ap     2.769696    34Ap     2.809719
      14App    2.848688    35Ap     2.870337    36Ap     2.958014
      15App    3.047223    37Ap     3.104329    16App    3.107817
      17App    3.143660    18App    3.176891    38Ap     3.188386
      39Ap     3.255139    40Ap     3.321256    41Ap     3.386175
      42Ap     3.397847    19App    3.568135    20App    3.648535
      43Ap     3.766334    44Ap     4.014812    21App    4.055660
      22App    4.145160    45Ap     4.200604    46Ap     4.239143
      23App    4.243179    24App    4.408215    47Ap     4.497897
      48Ap     4.530612    49Ap     4.765076    50Ap     5.091814
      51Ap     5.183240    52Ap     5.402373

    Beta Occupied:

       1Ap   -10.189484     2Ap   -10.187855     3Ap    -0.742766
       4Ap    -0.551367     5Ap    -0.442144     6Ap    -0.412048
       1App   -0.270205

    Beta Virtual:

       7Ap    -0.067536     2App    0.023928     8Ap     0.119966
       9Ap     0.132109    10Ap     0.189126    11Ap     0.314893
      12Ap     0.421892    13Ap     0.476652    14Ap     0.481979
       3App    0.494589     4App    0.520118    15Ap     0.564686
       5App    0.600597    16Ap     0.612145    17Ap     0.645035
       6App    0.663242    18Ap     0.684554    19Ap     0.719477
       7App    0.756241    20Ap     0.875391    21Ap     0.931162
       8App    0.978273    22Ap     0.987866     9App    1.051356
      23Ap     1.052359    24Ap     1.162090    10App    1.200497
      25Ap     1.265984    11App    1.337645    26Ap     1.485216
      27Ap     1.548893    28Ap     1.610921    29Ap     1.748040
      30Ap     1.825075    31Ap     2.007585    32Ap     2.343339
      12App    2.660802    13App    2.752648    33Ap     2.789146
      34Ap     2.852638    14App    2.859993    35Ap     2.881267
      36Ap     2.976421    15App    3.049941    16App    3.115957
      37Ap     3.120512    17App    3.162480    38Ap     3.205681
      18App    3.229141    39Ap     3.287194    40Ap     3.345720
      41Ap     3.401645    42Ap     3.431542    19App    3.587375
      20App    3.664679    43Ap     3.790855    44Ap     4.028760
      21App    4.064671    22App    4.153622    45Ap     4.212187
      23App    4.250965    46Ap     4.256158    24App    4.418739
      47Ap     4.520435    48Ap     4.555967    49Ap     4.779578
      50Ap     5.103919    51Ap     5.194318    52Ap     5.414012

    Final Occupation by Irrep:
             Ap   App
    DOCC [     6,    1 ]
    SOCC [     1,    0 ]

  @DF-UKS Final Energy:   -77.90776921875877

   => Energetics <=

    Nuclear Repulsion Energy =             28.2821855423983166
    One-Electron Energy =                -159.5374927928369857
    Two-Electron Energy =                  62.9704176941328981
    DFT Exchange-Correlation Energy =      -9.6228796624530091
    Empirical Dispersion Energy =           0.0000000000000000
    VV10 Nonlocal Energy =                  0.0000000000000000
    Total Energy =                        -77.9077692187588013

  UHF NO Occupations:
  HONO-2 :    6 Ap 1.9992610
  HONO-1 :    1App 1.9956100
  HONO-0 :    7 Ap 1.0000000
  LUNO+0 :    2App 0.0043900
  LUNO+1 :    8 Ap 0.0007390
  LUNO+2 :    9 Ap 0.0002370
  LUNO+3 :   10 Ap 0.0001344

Computation Completed

Properties will be evaluated at   0.000000,   0.000000,   0.000000 [a0]

Properties computed using the SCF density matrix

  Nuclear Dipole Moment: [e a0]
     X:     0.7842      Y:    -0.6813      Z:     0.0000

  Electronic Dipole Moment: [e a0]
     X:    -0.7020      Y:     0.4656      Z:     0.0000

  Dipole Moment: [e a0]
     X:     0.0823      Y:    -0.2157      Z:     0.0000     Total:     0.2308

  Dipole Moment: [D]
     X:     0.2091      Y:    -0.5482      Z:     0.0000     Total:     0.5868

*** tstop() called on n033 at Thu Nov  4 14:41:59 2021
Module time:
	user time   =      41.10 seconds =       0.69 minutes
	system time =       0.30 seconds =       0.01 minutes
	total time  =         41 seconds =       0.68 minutes
Total time:
	user time   =      41.10 seconds =       0.69 minutes
	system time =       0.30 seconds =       0.01 minutes
	total time  =         41 seconds =       0.68 minutes
Grab this energy -77.90776921875877
    Psi4 stopped on: Thursday, 04 November 2021 02:41PM
    Psi4 wall time for execution: 0:00:41.44

*** Psi4 exiting successfully. Buy a developer a beer!
