                               Psi4 1.4a2.dev629

  ==> Input File <==

--------------------------------------------------------------------------
import os
memory 14 GB

molecule {
 C    1.1738306601   -0.0434691183    0.0022990204
 H    2.0972734176   -1.8856217147   -0.0008490790
 H    2.3967541730    1.6020779544   -0.0006434098
 C   -1.3072287399    0.1602631229   -0.0010756316
 H   -2.9056551708   -1.1071280244    0.0002691001
units bohr
0 2
}

basis {

assign 6-31g_2dfp_

[ 6-31g_2dfp_ ]

spherical

!----------------------------------------------------------------------
! Basis Set Exchange
! Version v0.8.13
! https://www.basissetexchange.org
!----------------------------------------------------------------------
!   Basis set: 6-31G(2df,p)
! Description: 6-31G(2df,p)
!        Role: orbital
!     Version: 0  (Data from the original Basis Set Exchange)
!----------------------------------------------------------------------

****
H     0
S    3   1.00
     18.7311370              0.03349460
      2.8253937              0.23472695
      0.6401217              0.81375733
S    1   1.00
      0.1612778              1.00000000
P    1   1.00
      1.5000000              1.0000000
P    1   1.00
      0.3750000              1.0000000
****
B     0
S    6   1.00
   2068.8823000              0.0018663
    310.6495700              0.0142515
     70.6830330              0.0695516
     19.8610800              0.2325729
      6.2993048              0.4670787
      2.1270270              0.3634314
SP   3   1.00
      4.7279710             -0.1303938              0.0745976
      1.1903377             -0.1307889              0.3078467
      0.3594117              1.1309444              0.7434568
SP   1   1.00
      0.1267512              1.0000000              1.0000000
D    1   1.00
      0.8020000              1.0000000
D    1   1.00
      0.2005000              1.0000000
F    1   1.00
      0.5000000              1.0000000
****
C     0
S    6   1.00
   3047.5249000              0.0018347
    457.3695100              0.0140373
    103.9486900              0.0688426
     29.2101550              0.2321844
      9.2866630              0.4679413
      3.1639270              0.3623120
SP   3   1.00
      7.8682724             -0.1193324              0.0689991
      1.8812885             -0.1608542              0.3164240
      0.5442493              1.1434564              0.7443083
SP   1   1.00
      0.1687144              1.0000000              1.0000000
D    1   1.00
      1.2520000              1.0000000
D    1   1.00
      0.3130000              1.0000000
F    1   1.00
      0.8000000              1.0000000
****
N     0
S    6   1.00
   4173.5110000              0.0018348
    627.4579000              0.0139950
    142.9021000              0.0685870
     40.2343300              0.2322410
     12.8202100              0.4690700
      4.3904370              0.3604550
SP   3   1.00
     11.6263580             -0.1149610              0.0675800
      2.7162800             -0.1691180              0.3239070
      0.7722180              1.1458520              0.7408950
SP   1   1.00
      0.2120313              1.0000000              1.0000000
D    1   1.00
      1.8260000              1.0000000
D    1   1.00
      0.4565000              1.0000000
F    1   1.00
      1.0000000              1.0000000
****
O     0
S    6   1.00
   5484.6717000              0.0018311
    825.2349500              0.0139501
    188.0469600              0.0684451
     52.9645000              0.2327143
     16.8975700              0.4701930
      5.7996353              0.3585209
SP   3   1.00
     15.5396160             -0.1107775              0.0708743
      3.5999336             -0.1480263              0.3397528
      1.0137618              1.1307670              0.7271586
SP   1   1.00
      0.2700058              1.0000000              1.0000000
D    1   1.00
      2.5840000              1.0000000
D    1   1.00
      0.6460000              1.0000000
F    1   1.00
      1.4000000              1.0000000
****
F     0
S    6   1.00
   7001.7130900              0.0018196169
   1051.3660900              0.0139160796
    239.2856900              0.0684053245
     67.3974453              0.233185760
     21.5199573              0.471267439
      7.40310130             0.356618546
SP   3   1.00
     20.8479528             -0.108506975            0.0716287243
      4.80830834            -0.146451658            0.3459121030
      1.34406986             1.128688580            0.7224699570
SP   1   1.00
      0.358151393            1.0000000              1.0000000
D    1   1.00
      3.5000000              1.0000000
D    1   1.00
      0.8750000              1.0000000
F    1   1.00
      1.8500000              1.0000000
****
Al     0
S    6   1.00
  13983.1000000              0.00194267
   2098.7500000              0.0148599
    477.7050000              0.0728494
    134.3600000              0.2468300
     42.8709000              0.4872580
     14.5189000              0.3234960
SP   6   1.00
    239.6680000             -0.00292619             0.00460285
     57.4419000             -0.0374080              0.0331990
     18.2859000             -0.1144870              0.1362820
      6.5991400              0.1156350              0.3304760
      2.4904900              0.6125950              0.4491460
      0.9445400              0.3937990              0.2657040
SP   3   1.00
      1.2779000             -0.2276060             -0.0175130
      0.3975900              0.00144583             0.2445330
      0.1600950              1.0927900              0.8049340
SP   1   1.00
      0.0556577              1.0000000              1.0000000
D    1   1.00
      0.6500000              1.0000000
D    1   1.00
      0.1625000              1.0000000
F    1   1.00
      0.2500000              1.0000000
****
Si     0
S    6   1.00
  16115.9000000              0.00195948
   2425.5800000              0.01492880
    553.8670000              0.07284780
    156.3400000              0.24613000
     50.0683000              0.48591400
     17.0178000              0.32500200
SP   6   1.00
    292.7180000             -0.00278094             0.00443826
     69.8731000             -0.03571460             0.03266790
     22.3363000             -0.11498500             0.13472100
      8.1503900              0.09356340             0.32867800
      3.1345800              0.60301700             0.44964000
      1.2254300              0.41895900             0.26137200
SP   3   1.00
      1.7273800             -0.24463000            -0.01779510
      0.5729220              0.00431572             0.25353900
      0.2221920              1.09818000             0.80066900
SP   1   1.00
      0.0778369              1.00000000             1.00000000
D    1   1.00
      0.9000000              1.0000000
D    1   1.00
      0.2250000              1.0000000
F    1   1.00
      0.3200000              1.0000000
****
P     0
S    6   1.00
  19413.3000000              0.0018516
   2909.4200000              0.0142062
    661.3640000              0.0699995
    185.7590000              0.2400790
     59.1943000              0.4847620
     20.0310000              0.3352000
SP   6   1.00
    339.4780000             -0.00278217             0.00456462
     81.0101000             -0.0360499              0.03369360
     25.8780000             -0.1166310              0.13975500
      9.4522100              0.0968328              0.33936200
      3.6656600              0.6144180              0.45092100
      1.4674600              0.4037980              0.23858600
SP   3   1.00
      2.1562300             -0.2529230             -0.01776530
      0.7489970              0.0328517              0.27405800
      0.2831450              1.0812500              0.78542100
SP   1   1.00
      0.0998317              1.0000000              1.00000000
D    1   1.00
      1.1000000              1.0000000
D    1   1.00
      0.2750000              1.0000000
F    1   1.00
      0.4500000              1.0000000
****
S     0
S    6   1.00
  21917.1000000              0.0018690
   3301.4900000              0.0142300
    754.1460000              0.0696960
    212.7110000              0.2384870
     67.9896000              0.4833070
     23.0515000              0.3380740
SP   6   1.00
    423.7350000             -0.0023767              0.0040610
    100.7100000             -0.0316930              0.0306810
     32.1599000             -0.1133170              0.1304520
     11.8079000              0.0560900              0.3272050
      4.6311000              0.5922550              0.4528510
      1.8702500              0.4550060              0.2560420
SP   3   1.00
      2.6158400             -0.2503740             -0.0145110
      0.9221670              0.0669570              0.3102630
      0.3412870              1.0545100              0.7544830
SP   1   1.00
      0.1171670              1.0000000              1.0000000
D    1   1.00
      1.3000000              1.0000000
D    1   1.00
      0.3250000              1.0000000
F    1   1.00
      0.5500000              1.0000000
****
Cl     0
S    6   1.00
  25180.1000000              0.0018330
   3780.3500000              0.0140340
    860.4740000              0.0690970
    242.1450000              0.2374520
     77.3349000              0.4830340
     26.2470000              0.3398560
SP   6   1.00
    491.7650000             -0.0022974              0.0039894
    116.9840000             -0.0307140              0.0303180
     37.4153000             -0.1125280              0.1298800
     13.7834000              0.0450160              0.3279510
      5.4521500              0.5893530              0.4535270
      2.2258800              0.4652060              0.2521540
SP   3   1.00
      3.1864900             -0.2518300             -0.0142990
      1.1442700              0.0615890              0.3235720
      0.4203770              1.0601800              0.7435070
SP   1   1.00
      0.1426570              1.0000000              1.0000000
D    1   1.00
      1.5000000              1.0000000
D    1   1.00
      0.3750000              1.0000000
F    1   1.00
      0.7000000              1.0000000
****
}

set {
reference uhf
freeze_core true
e_convergence 10
d_convergence 10
dft_spherical_points 1202
dft_radial_points 99
}

e = energy('b3lyp')

print_out('Grab this energy {0}'.format(e))
--------------------------------------------------------------------------

    Molecular point group: c1

    Geometry (in Bohr), charge = 0, multiplicity = 2:

       Center              X                  Y                   Z               Mass
    ------------   -----------------  -----------------  -----------------  -----------------
         C            1.173829752460    -0.043468164276     0.001801389958    12.000000000000
         H            2.097272509960    -1.885620760676    -0.001346709442     1.007825032230
         H            2.396753265360     1.602078908424    -0.001141040242     1.007825032230
         C           -1.307229647540     0.160264076924    -0.001573262042    12.000000000000
         H           -2.905656078440    -1.107127070376    -0.000228530342     1.007825032230

  Charge       = 0
  Multiplicity = 2
  Basis Set: ANONYMOUS03050CD8
    Blend: 6-31G_2DFP_
  Basis Set: (ANONYMOUS03050CD8 AUX)
    Blend: DEF2-UNIVERSAL-JKFIT

    Orbital Energies [Eh]
    ---------------------

    Alpha Occupied:

       1A    -10.204378     2A    -10.185388     3A     -0.760777
       4A     -0.573434     5A     -0.457607     6A     -0.426126
       7A     -0.278450     8A     -0.234673

    Alpha Virtual:

       9A      0.012491    10A      0.117926    11A      0.122190
      12A      0.184165    13A      0.305654    14A      0.413160
      15A      0.458262    16A      0.473979    17A      0.490401
      18A      0.512137    19A      0.514412    20A      0.592237
      21A      0.595517    22A      0.639293    23A      0.654887
      24A      0.669236    25A      0.706795    26A      0.734551
      27A      0.858941    28A      0.913454    29A      0.976156
      30A      0.986899    31A      1.043677    32A      1.047810
      33A      1.154272    34A      1.194188    35A      1.248683
      36A      1.328828    37A      1.474245    38A      1.542474
      39A      1.607185    40A      1.734646    41A      1.810029
      42A      1.998070    43A      2.320514    44A      2.649690
      45A      2.724392    46A      2.771606    47A      2.810666
      48A      2.849643    49A      2.869949    50A      2.954324
      51A      3.046599    52A      3.103164    53A      3.106951
      54A      3.142973    55A      3.175115    56A      3.192299
      57A      3.257314    58A      3.322177    59A      3.387802
      60A      3.399359    61A      3.570726    62A      3.651837
      63A      3.770752    64A      4.020676    65A      4.058355
      66A      4.148362    67A      4.202082    68A      4.247065
      69A      4.248486    70A      4.413432    71A      4.503105
      72A      4.526560    73A      4.772266    74A      5.096164
      75A      5.194275    76A      5.409823

    Beta Occupied:

       1A    -10.189095     2A    -10.186924     3A     -0.743572
       4A     -0.551816     5A     -0.442611     6A     -0.412322
       7A     -0.270538

    Beta Virtual:

       8A     -0.067825     9A      0.024379    10A      0.120739
      11A      0.132527    12A      0.189856    13A      0.315457
      14A      0.422529    15A      0.476271    16A      0.482695
      17A      0.494403    18A      0.520293    19A      0.564980
      20A      0.600893    21A      0.613078    22A      0.646028
      23A      0.663321    24A      0.684490    25A      0.720012
      26A      0.757011    27A      0.876517    28A      0.931270
      29A      0.979600    30A      0.992289    31A      1.051911
      32A      1.052554    33A      1.164194    34A      1.202202
      35A      1.266488    36A      1.337540    37A      1.488451
      38A      1.550078    39A      1.616036    40A      1.751408
      41A      1.825900    42A      2.012291    43A      2.342933
      44A      2.661320    45A      2.752842    46A      2.791118
      47A      2.853105    48A      2.860896    49A      2.880800
      50A      2.973060    51A      3.049272    52A      3.114786
      53A      3.119659    54A      3.161503    55A      3.209372
      56A      3.228045    57A      3.289703    58A      3.346500
      59A      3.403409    60A      3.432315    61A      3.590022
      62A      3.668143    63A      3.795611    64A      4.034653
      65A      4.067377    66A      4.156958    67A      4.213633
      68A      4.255013    69A      4.265300    70A      4.423971
      71A      4.525815    72A      4.552102    73A      4.786820
      74A      5.108271    75A      5.205285    76A      5.421597

    Final Occupation by Irrep:
              A
    DOCC [     7 ]
    SOCC [     1 ]

  @DF-UKS Final Energy:   -77.90781287052995

   => Energetics <=

    Nuclear Repulsion Energy =             28.3352240475953927
    One-Electron Energy =                -159.6388779429790361
    Two-Electron Energy =                  63.0219955145937405
    DFT Exchange-Correlation Energy =      -9.6261544897400579
    Empirical Dispersion Energy =           0.0000000000000000
    VV10 Nonlocal Energy =                  0.0000000000000000
    Total Energy =                        -77.9078128705299520

  UHF NO Occupations:
  HONO-2 :    6  A 1.9992672
  HONO-1 :    7  A 1.9956682
  HONO-0 :    8  A 1.0000000
  LUNO+0 :    9  A 0.0043318
  LUNO+1 :   10  A 0.0007328
  LUNO+2 :   11  A 0.0002327
  LUNO+3 :   12  A 0.0001339

Computation Completed

Properties will be evaluated at   0.000000,   0.000000,   0.000000 [a0]

Properties computed using the SCF density matrix

  Nuclear Dipole Moment: [e a0]
     X:     0.7880      Y:    -0.6899      Z:    -0.0013

  Electronic Dipole Moment: [e a0]
     X:    -0.7022      Y:     0.4727      Z:     0.0009

  Dipole Moment: [e a0]
     X:     0.0857      Y:    -0.2172      Z:    -0.0004     Total:     0.2335

  Dipole Moment: [D]
     X:     0.2179      Y:    -0.5521      Z:    -0.0011     Total:     0.5936

*** tstop() called on n045 at Thu Nov  4 14:35:57 2021
Module time:
	user time   =      38.71 seconds =       0.65 minutes
	system time =       0.33 seconds =       0.01 minutes
	total time  =         39 seconds =       0.65 minutes
Total time:
	user time   =      38.71 seconds =       0.65 minutes
	system time =       0.33 seconds =       0.01 minutes
	total time  =         39 seconds =       0.65 minutes
Grab this energy -77.90781287052995
    Psi4 stopped on: Thursday, 04 November 2021 02:35PM
    Psi4 wall time for execution: 0:00:39.09

*** Psi4 exiting successfully. Buy a developer a beer!
