                               Psi4 1.4a2.dev629

  ==> Input File <==

--------------------------------------------------------------------------
import os
memory 14 GB

molecule {
 C    1.1755921045   -0.0397930630   -0.0000000000
 H    2.0836766066   -1.8851874616    0.0000000000
 H    2.3992853656    1.6012526719    0.0000000000
 C   -1.3088648339    0.1630468681    0.0000000000
 H   -2.8947149028   -1.1131967954    0.0000000000
units bohr
0 2
}

basis {

assign 6-31g_2dfp_

[ 6-31g_2dfp_ ]

spherical

!----------------------------------------------------------------------
! Basis Set Exchange
! Version v0.8.13
! https://www.basissetexchange.org
!----------------------------------------------------------------------
!   Basis set: 6-31G(2df,p)
! Description: 6-31G(2df,p)
!        Role: orbital
!     Version: 0  (Data from the original Basis Set Exchange)
!----------------------------------------------------------------------

****
H     0
S    3   1.00
     18.7311370              0.03349460
      2.8253937              0.23472695
      0.6401217              0.81375733
S    1   1.00
      0.1612778              1.00000000
P    1   1.00
      1.5000000              1.0000000
P    1   1.00
      0.3750000              1.0000000
****
B     0
S    6   1.00
   2068.8823000              0.0018663
    310.6495700              0.0142515
     70.6830330              0.0695516
     19.8610800              0.2325729
      6.2993048              0.4670787
      2.1270270              0.3634314
SP   3   1.00
      4.7279710             -0.1303938              0.0745976
      1.1903377             -0.1307889              0.3078467
      0.3594117              1.1309444              0.7434568
SP   1   1.00
      0.1267512              1.0000000              1.0000000
D    1   1.00
      0.8020000              1.0000000
D    1   1.00
      0.2005000              1.0000000
F    1   1.00
      0.5000000              1.0000000
****
C     0
S    6   1.00
   3047.5249000              0.0018347
    457.3695100              0.0140373
    103.9486900              0.0688426
     29.2101550              0.2321844
      9.2866630              0.4679413
      3.1639270              0.3623120
SP   3   1.00
      7.8682724             -0.1193324              0.0689991
      1.8812885             -0.1608542              0.3164240
      0.5442493              1.1434564              0.7443083
SP   1   1.00
      0.1687144              1.0000000              1.0000000
D    1   1.00
      1.2520000              1.0000000
D    1   1.00
      0.3130000              1.0000000
F    1   1.00
      0.8000000              1.0000000
****
N     0
S    6   1.00
   4173.5110000              0.0018348
    627.4579000              0.0139950
    142.9021000              0.0685870
     40.2343300              0.2322410
     12.8202100              0.4690700
      4.3904370              0.3604550
SP   3   1.00
     11.6263580             -0.1149610              0.0675800
      2.7162800             -0.1691180              0.3239070
      0.7722180              1.1458520              0.7408950
SP   1   1.00
      0.2120313              1.0000000              1.0000000
D    1   1.00
      1.8260000              1.0000000
D    1   1.00
      0.4565000              1.0000000
F    1   1.00
      1.0000000              1.0000000
****
O     0
S    6   1.00
   5484.6717000              0.0018311
    825.2349500              0.0139501
    188.0469600              0.0684451
     52.9645000              0.2327143
     16.8975700              0.4701930
      5.7996353              0.3585209
SP   3   1.00
     15.5396160             -0.1107775              0.0708743
      3.5999336             -0.1480263              0.3397528
      1.0137618              1.1307670              0.7271586
SP   1   1.00
      0.2700058              1.0000000              1.0000000
D    1   1.00
      2.5840000              1.0000000
D    1   1.00
      0.6460000              1.0000000
F    1   1.00
      1.4000000              1.0000000
****
F     0
S    6   1.00
   7001.7130900              0.0018196169
   1051.3660900              0.0139160796
    239.2856900              0.0684053245
     67.3974453              0.233185760
     21.5199573              0.471267439
      7.40310130             0.356618546
SP   3   1.00
     20.8479528             -0.108506975            0.0716287243
      4.80830834            -0.146451658            0.3459121030
      1.34406986             1.128688580            0.7224699570
SP   1   1.00
      0.358151393            1.0000000              1.0000000
D    1   1.00
      3.5000000              1.0000000
D    1   1.00
      0.8750000              1.0000000
F    1   1.00
      1.8500000              1.0000000
****
Al     0
S    6   1.00
  13983.1000000              0.00194267
   2098.7500000              0.0148599
    477.7050000              0.0728494
    134.3600000              0.2468300
     42.8709000              0.4872580
     14.5189000              0.3234960
SP   6   1.00
    239.6680000             -0.00292619             0.00460285
     57.4419000             -0.0374080              0.0331990
     18.2859000             -0.1144870              0.1362820
      6.5991400              0.1156350              0.3304760
      2.4904900              0.6125950              0.4491460
      0.9445400              0.3937990              0.2657040
SP   3   1.00
      1.2779000             -0.2276060             -0.0175130
      0.3975900              0.00144583             0.2445330
      0.1600950              1.0927900              0.8049340
SP   1   1.00
      0.0556577              1.0000000              1.0000000
D    1   1.00
      0.6500000              1.0000000
D    1   1.00
      0.1625000              1.0000000
F    1   1.00
      0.2500000              1.0000000
****
Si     0
S    6   1.00
  16115.9000000              0.00195948
   2425.5800000              0.01492880
    553.8670000              0.07284780
    156.3400000              0.24613000
     50.0683000              0.48591400
     17.0178000              0.32500200
SP   6   1.00
    292.7180000             -0.00278094             0.00443826
     69.8731000             -0.03571460             0.03266790
     22.3363000             -0.11498500             0.13472100
      8.1503900              0.09356340             0.32867800
      3.1345800              0.60301700             0.44964000
      1.2254300              0.41895900             0.26137200
SP   3   1.00
      1.7273800             -0.24463000            -0.01779510
      0.5729220              0.00431572             0.25353900
      0.2221920              1.09818000             0.80066900
SP   1   1.00
      0.0778369              1.00000000             1.00000000
D    1   1.00
      0.9000000              1.0000000
D    1   1.00
      0.2250000              1.0000000
F    1   1.00
      0.3200000              1.0000000
****
P     0
S    6   1.00
  19413.3000000              0.0018516
   2909.4200000              0.0142062
    661.3640000              0.0699995
    185.7590000              0.2400790
     59.1943000              0.4847620
     20.0310000              0.3352000
SP   6   1.00
    339.4780000             -0.00278217             0.00456462
     81.0101000             -0.0360499              0.03369360
     25.8780000             -0.1166310              0.13975500
      9.4522100              0.0968328              0.33936200
      3.6656600              0.6144180              0.45092100
      1.4674600              0.4037980              0.23858600
SP   3   1.00
      2.1562300             -0.2529230             -0.01776530
      0.7489970              0.0328517              0.27405800
      0.2831450              1.0812500              0.78542100
SP   1   1.00
      0.0998317              1.0000000              1.00000000
D    1   1.00
      1.1000000              1.0000000
D    1   1.00
      0.2750000              1.0000000
F    1   1.00
      0.4500000              1.0000000
****
S     0
S    6   1.00
  21917.1000000              0.0018690
   3301.4900000              0.0142300
    754.1460000              0.0696960
    212.7110000              0.2384870
     67.9896000              0.4833070
     23.0515000              0.3380740
SP   6   1.00
    423.7350000             -0.0023767              0.0040610
    100.7100000             -0.0316930              0.0306810
     32.1599000             -0.1133170              0.1304520
     11.8079000              0.0560900              0.3272050
      4.6311000              0.5922550              0.4528510
      1.8702500              0.4550060              0.2560420
SP   3   1.00
      2.6158400             -0.2503740             -0.0145110
      0.9221670              0.0669570              0.3102630
      0.3412870              1.0545100              0.7544830
SP   1   1.00
      0.1171670              1.0000000              1.0000000
D    1   1.00
      1.3000000              1.0000000
D    1   1.00
      0.3250000              1.0000000
F    1   1.00
      0.5500000              1.0000000
****
Cl     0
S    6   1.00
  25180.1000000              0.0018330
   3780.3500000              0.0140340
    860.4740000              0.0690970
    242.1450000              0.2374520
     77.3349000              0.4830340
     26.2470000              0.3398560
SP   6   1.00
    491.7650000             -0.0022974              0.0039894
    116.9840000             -0.0307140              0.0303180
     37.4153000             -0.1125280              0.1298800
     13.7834000              0.0450160              0.3279510
      5.4521500              0.5893530              0.4535270
      2.2258800              0.4652060              0.2521540
SP   3   1.00
      3.1864900             -0.2518300             -0.0142990
      1.1442700              0.0615890              0.3235720
      0.4203770              1.0601800              0.7435070
SP   1   1.00
      0.1426570              1.0000000              1.0000000
D    1   1.00
      1.5000000              1.0000000
D    1   1.00
      0.3750000              1.0000000
F    1   1.00
      0.7000000              1.0000000
****
}

set {
reference uhf
freeze_core true
e_convergence 10
d_convergence 10
dft_spherical_points 1202
dft_radial_points 99
}

e = energy('b3lyp')

print_out('Grab this energy {0}'.format(e))
--------------------------------------------------------------------------

    Molecular point group: cs

    Geometry (in Bohr), charge = 0, multiplicity = 2:

       Center              X                  Y                   Z               Mass
    ------------   -----------------  -----------------  -----------------  -----------------
         C            1.175540208839    -0.042419722827     0.000000000000    12.000000000000
         H            2.083624710939    -1.887814121427     0.000000000000     1.007825032230
         H            2.399233469939     1.598626012073     0.000000000000     1.007825032230
         C           -1.308916729561     0.160420208273     0.000000000000    12.000000000000
         H           -2.894766798461    -1.115823455227     0.000000000000     1.007825032230

  Charge       = 0
  Multiplicity = 2
  Basis Set: ANONYMOUS873916CF
    Blend: 6-31G_2DFP_
  Basis Set: (ANONYMOUS873916CF AUX)
    Blend: DEF2-UNIVERSAL-JKFIT

    Orbital Energies [Eh]
    ---------------------

    Alpha Occupied:

       1Ap   -10.204421     2Ap   -10.185234     3Ap    -0.760714
       4Ap    -0.573852     5Ap    -0.457660     6Ap    -0.426377
       1App   -0.278184     7Ap    -0.235218

    Alpha Virtual:

       2App    0.012100     8Ap     0.118008     9Ap     0.122983
      10Ap     0.184554    11Ap     0.305006    12Ap     0.413791
      13Ap     0.458040    14Ap     0.473901     3App    0.490766
       4App    0.511993    15Ap     0.514070    16Ap     0.592958
       5App    0.596201    17Ap     0.639832     6App    0.654557
      18Ap     0.669682    19Ap     0.705894     7App    0.735162
      20Ap     0.859520    21Ap     0.912889     8App    0.976770
      22Ap     0.989886    23Ap     1.041806     9App    1.046921
      24Ap     1.156128    10App    1.194762    25Ap     1.249218
      11App    1.328082    26Ap     1.475968    27Ap     1.542032
      28Ap     1.608804    29Ap     1.732545    30Ap     1.811813
      31Ap     1.999578    32Ap     2.316620    12App    2.649627
      13App    2.724122    33Ap     2.772723    34Ap     2.811986
      14App    2.850084    35Ap     2.869040    36Ap     2.955763
      15App    3.046784    37Ap     3.101563    16App    3.107873
      17App    3.144202    18App    3.174634    38Ap     3.194731
      39Ap     3.257028    40Ap     3.322138    41Ap     3.389304
      42Ap     3.398116    19App    3.571118    20App    3.652348
      43Ap     3.772432    44Ap     4.017785    21App    4.058057
      22App    4.149265    45Ap     4.202365    23App    4.247722
      46Ap     4.253179    24App    4.413498    47Ap     4.502321
      48Ap     4.527036    49Ap     4.776078    50Ap     5.098458
      51Ap     5.197616    52Ap     5.414807

    Beta Occupied:

       1Ap   -10.189104     2Ap   -10.186767     3Ap    -0.743529
       4Ap    -0.552241     5Ap    -0.442508     6Ap    -0.412830
       1App   -0.270260

    Beta Virtual:

       7Ap    -0.068002     2App    0.024042     8Ap     0.120909
       9Ap     0.133072    10Ap     0.190158    11Ap     0.314859
      12Ap     0.423141    13Ap     0.475912    14Ap     0.482663
       3App    0.494778     4App    0.520118    15Ap     0.564739
       5App    0.601601    16Ap     0.613923    17Ap     0.646490
       6App    0.662981    18Ap     0.684866    19Ap     0.719142
       7App    0.757630    20Ap     0.876949    21Ap     0.930670
       8App    0.980189    22Ap     0.995241    23Ap     1.050054
       9App    1.051491    24Ap     1.166159    10App    1.202855
      25Ap     1.267065    11App    1.336811    26Ap     1.490212
      27Ap     1.549653    28Ap     1.617560    29Ap     1.749767
      30Ap     1.827348    31Ap     2.013741    32Ap     2.338972
      12App    2.661273    13App    2.752462    33Ap     2.792305
      34Ap     2.854293    14App    2.861479    35Ap     2.879972
      36Ap     2.974616    15App    3.049417    16App    3.115494
      37Ap     3.117989    17App    3.162977    38Ap     3.211668
      18App    3.227625    39Ap     3.289582    40Ap     3.346783
      41Ap     3.404243    42Ap     3.431242    19App    3.590425
      20App    3.668819    43Ap     3.797466    44Ap     4.031595
      21App    4.066935    22App    4.157935    45Ap     4.213897
      23App    4.255456    46Ap     4.270287    24App    4.423960
      47Ap     4.525442    48Ap     4.552669    49Ap     4.790523
      50Ap     5.110396    51Ap     5.208463    52Ap     5.426657

    Final Occupation by Irrep:
             Ap   App
    DOCC [     6,    1 ]
    SOCC [     1,    0 ]

  @DF-UKS Final Energy:   -77.90771278684458

   => Energetics <=

    Nuclear Repulsion Energy =             28.3380549717952377
    One-Electron Energy =                -159.6424667550346896
    Two-Electron Energy =                  63.0238209581095461
    DFT Exchange-Correlation Energy =      -9.6271219617146588
    Empirical Dispersion Energy =           0.0000000000000000
    VV10 Nonlocal Energy =                  0.0000000000000000
    Total Energy =                        -77.9077127868445700

  UHF NO Occupations:
  HONO-2 :    6 Ap 1.9992742
  HONO-1 :    1App 1.9956121
  HONO-0 :    7 Ap 1.0000000
  LUNO+0 :    2App 0.0043879
  LUNO+1 :    8 Ap 0.0007258
  LUNO+2 :    9 Ap 0.0002280
  LUNO+3 :   10 Ap 0.0001346

Computation Completed

Properties will be evaluated at   0.000000,   0.000000,   0.000000 [a0]

Properties computed using the SCF density matrix

  Nuclear Dipole Moment: [e a0]
     X:     0.7878      Y:    -0.6970      Z:     0.0000

  Electronic Dipole Moment: [e a0]
     X:    -0.7005      Y:     0.4786      Z:     0.0000

  Dipole Moment: [e a0]
     X:     0.0873      Y:    -0.2184      Z:     0.0000     Total:     0.2352

  Dipole Moment: [D]
     X:     0.2219      Y:    -0.5552      Z:     0.0000     Total:     0.5979

*** tstop() called on n073 at Thu Nov  4 14:38:08 2021
Module time:
	user time   =      34.59 seconds =       0.58 minutes
	system time =       0.42 seconds =       0.01 minutes
	total time  =         35 seconds =       0.58 minutes
Total time:
	user time   =      34.59 seconds =       0.58 minutes
	system time =       0.42 seconds =       0.01 minutes
	total time  =         35 seconds =       0.58 minutes
Grab this energy -77.90771278684458
    Psi4 stopped on: Thursday, 04 November 2021 02:38PM
    Psi4 wall time for execution: 0:00:35.04

*** Psi4 exiting successfully. Buy a developer a beer!
