                               Psi4 1.4a2.dev629

  ==> Input File <==

--------------------------------------------------------------------------
import os
memory 14 GB

molecule {
 Si    0.0000000000    0.0049104897    0.1017292036
 H    0.0000000000   -2.4096256539   -1.3426530839
 H    0.0000000000    2.4047151642   -1.3397223159
units bohr
0 3
}

basis {

assign 6-31g_2dfp_

[ 6-31g_2dfp_ ]

spherical

!----------------------------------------------------------------------
! Basis Set Exchange
! Version v0.8.13
! https://www.basissetexchange.org
!----------------------------------------------------------------------
!   Basis set: 6-31G(2df,p)
! Description: 6-31G(2df,p)
!        Role: orbital
!     Version: 0  (Data from the original Basis Set Exchange)
!----------------------------------------------------------------------

****
H     0
S    3   1.00
     18.7311370              0.03349460
      2.8253937              0.23472695
      0.6401217              0.81375733
S    1   1.00
      0.1612778              1.00000000
P    1   1.00
      1.5000000              1.0000000
P    1   1.00
      0.3750000              1.0000000
****
B     0
S    6   1.00
   2068.8823000              0.0018663
    310.6495700              0.0142515
     70.6830330              0.0695516
     19.8610800              0.2325729
      6.2993048              0.4670787
      2.1270270              0.3634314
SP   3   1.00
      4.7279710             -0.1303938              0.0745976
      1.1903377             -0.1307889              0.3078467
      0.3594117              1.1309444              0.7434568
SP   1   1.00
      0.1267512              1.0000000              1.0000000
D    1   1.00
      0.8020000              1.0000000
D    1   1.00
      0.2005000              1.0000000
F    1   1.00
      0.5000000              1.0000000
****
C     0
S    6   1.00
   3047.5249000              0.0018347
    457.3695100              0.0140373
    103.9486900              0.0688426
     29.2101550              0.2321844
      9.2866630              0.4679413
      3.1639270              0.3623120
SP   3   1.00
      7.8682724             -0.1193324              0.0689991
      1.8812885             -0.1608542              0.3164240
      0.5442493              1.1434564              0.7443083
SP   1   1.00
      0.1687144              1.0000000              1.0000000
D    1   1.00
      1.2520000              1.0000000
D    1   1.00
      0.3130000              1.0000000
F    1   1.00
      0.8000000              1.0000000
****
N     0
S    6   1.00
   4173.5110000              0.0018348
    627.4579000              0.0139950
    142.9021000              0.0685870
     40.2343300              0.2322410
     12.8202100              0.4690700
      4.3904370              0.3604550
SP   3   1.00
     11.6263580             -0.1149610              0.0675800
      2.7162800             -0.1691180              0.3239070
      0.7722180              1.1458520              0.7408950
SP   1   1.00
      0.2120313              1.0000000              1.0000000
D    1   1.00
      1.8260000              1.0000000
D    1   1.00
      0.4565000              1.0000000
F    1   1.00
      1.0000000              1.0000000
****
O     0
S    6   1.00
   5484.6717000              0.0018311
    825.2349500              0.0139501
    188.0469600              0.0684451
     52.9645000              0.2327143
     16.8975700              0.4701930
      5.7996353              0.3585209
SP   3   1.00
     15.5396160             -0.1107775              0.0708743
      3.5999336             -0.1480263              0.3397528
      1.0137618              1.1307670              0.7271586
SP   1   1.00
      0.2700058              1.0000000              1.0000000
D    1   1.00
      2.5840000              1.0000000
D    1   1.00
      0.6460000              1.0000000
F    1   1.00
      1.4000000              1.0000000
****
F     0
S    6   1.00
   7001.7130900              0.0018196169
   1051.3660900              0.0139160796
    239.2856900              0.0684053245
     67.3974453              0.233185760
     21.5199573              0.471267439
      7.40310130             0.356618546
SP   3   1.00
     20.8479528             -0.108506975            0.0716287243
      4.80830834            -0.146451658            0.3459121030
      1.34406986             1.128688580            0.7224699570
SP   1   1.00
      0.358151393            1.0000000              1.0000000
D    1   1.00
      3.5000000              1.0000000
D    1   1.00
      0.8750000              1.0000000
F    1   1.00
      1.8500000              1.0000000
****
Al     0
S    6   1.00
  13983.1000000              0.00194267
   2098.7500000              0.0148599
    477.7050000              0.0728494
    134.3600000              0.2468300
     42.8709000              0.4872580
     14.5189000              0.3234960
SP   6   1.00
    239.6680000             -0.00292619             0.00460285
     57.4419000             -0.0374080              0.0331990
     18.2859000             -0.1144870              0.1362820
      6.5991400              0.1156350              0.3304760
      2.4904900              0.6125950              0.4491460
      0.9445400              0.3937990              0.2657040
SP   3   1.00
      1.2779000             -0.2276060             -0.0175130
      0.3975900              0.00144583             0.2445330
      0.1600950              1.0927900              0.8049340
SP   1   1.00
      0.0556577              1.0000000              1.0000000
D    1   1.00
      0.6500000              1.0000000
D    1   1.00
      0.1625000              1.0000000
F    1   1.00
      0.2500000              1.0000000
****
Si     0
S    6   1.00
  16115.9000000              0.00195948
   2425.5800000              0.01492880
    553.8670000              0.07284780
    156.3400000              0.24613000
     50.0683000              0.48591400
     17.0178000              0.32500200
SP   6   1.00
    292.7180000             -0.00278094             0.00443826
     69.8731000             -0.03571460             0.03266790
     22.3363000             -0.11498500             0.13472100
      8.1503900              0.09356340             0.32867800
      3.1345800              0.60301700             0.44964000
      1.2254300              0.41895900             0.26137200
SP   3   1.00
      1.7273800             -0.24463000            -0.01779510
      0.5729220              0.00431572             0.25353900
      0.2221920              1.09818000             0.80066900
SP   1   1.00
      0.0778369              1.00000000             1.00000000
D    1   1.00
      0.9000000              1.0000000
D    1   1.00
      0.2250000              1.0000000
F    1   1.00
      0.3200000              1.0000000
****
P     0
S    6   1.00
  19413.3000000              0.0018516
   2909.4200000              0.0142062
    661.3640000              0.0699995
    185.7590000              0.2400790
     59.1943000              0.4847620
     20.0310000              0.3352000
SP   6   1.00
    339.4780000             -0.00278217             0.00456462
     81.0101000             -0.0360499              0.03369360
     25.8780000             -0.1166310              0.13975500
      9.4522100              0.0968328              0.33936200
      3.6656600              0.6144180              0.45092100
      1.4674600              0.4037980              0.23858600
SP   3   1.00
      2.1562300             -0.2529230             -0.01776530
      0.7489970              0.0328517              0.27405800
      0.2831450              1.0812500              0.78542100
SP   1   1.00
      0.0998317              1.0000000              1.00000000
D    1   1.00
      1.1000000              1.0000000
D    1   1.00
      0.2750000              1.0000000
F    1   1.00
      0.4500000              1.0000000
****
S     0
S    6   1.00
  21917.1000000              0.0018690
   3301.4900000              0.0142300
    754.1460000              0.0696960
    212.7110000              0.2384870
     67.9896000              0.4833070
     23.0515000              0.3380740
SP   6   1.00
    423.7350000             -0.0023767              0.0040610
    100.7100000             -0.0316930              0.0306810
     32.1599000             -0.1133170              0.1304520
     11.8079000              0.0560900              0.3272050
      4.6311000              0.5922550              0.4528510
      1.8702500              0.4550060              0.2560420
SP   3   1.00
      2.6158400             -0.2503740             -0.0145110
      0.9221670              0.0669570              0.3102630
      0.3412870              1.0545100              0.7544830
SP   1   1.00
      0.1171670              1.0000000              1.0000000
D    1   1.00
      1.3000000              1.0000000
D    1   1.00
      0.3250000              1.0000000
F    1   1.00
      0.5500000              1.0000000
****
Cl     0
S    6   1.00
  25180.1000000              0.0018330
   3780.3500000              0.0140340
    860.4740000              0.0690970
    242.1450000              0.2374520
     77.3349000              0.4830340
     26.2470000              0.3398560
SP   6   1.00
    491.7650000             -0.0022974              0.0039894
    116.9840000             -0.0307140              0.0303180
     37.4153000             -0.1125280              0.1298800
     13.7834000              0.0450160              0.3279510
      5.4521500              0.5893530              0.4535270
      2.2258800              0.4652060              0.2521540
SP   3   1.00
      3.1864900             -0.2518300             -0.0142990
      1.1442700              0.0615890              0.3235720
      0.4203770              1.0601800              0.7435070
SP   1   1.00
      0.1426570              1.0000000              1.0000000
D    1   1.00
      1.5000000              1.0000000
D    1   1.00
      0.3750000              1.0000000
F    1   1.00
      0.7000000              1.0000000
****
}

set {
reference uhf
freeze_core true
e_convergence 10
d_convergence 10
dft_spherical_points 1202
dft_radial_points 99
}

e = energy('b3lyp')

print_out('Grab this energy {0}'.format(e))
--------------------------------------------------------------------------

    Molecular point group: cs

    Geometry (in Bohr), charge = 0, multiplicity = 3:

       Center              X                  Y                   Z               Mass
    ------------   -----------------  -----------------  -----------------  -----------------
         SI          -0.000495013934    -0.096971180183     0.000000000000    27.976926534650
         H            2.414041129666     1.347411107317     0.000000000000     1.007825032230
         H           -2.400299688434     1.344480339317     0.000000000000     1.007825032230

  Charge       = 0
  Multiplicity = 3
  Basis Set: ANONYMOUS50E79069
    Blend: 6-31G_2DFP_
  Basis Set: (ANONYMOUS50E79069 AUX)
    Blend: DEF2-UNIVERSAL-JKFIT

    Orbital Energies [Eh]
    ---------------------

    Alpha Occupied:

       1Ap   -66.137569     2Ap    -5.296929     1App   -3.657630
       3Ap    -3.657391     4Ap    -3.651443     5Ap    -0.534160
       6Ap    -0.377647     7Ap    -0.263299     2App   -0.196432

    Alpha Virtual:

       8Ap     0.038816     9Ap     0.050769    10Ap     0.144322
      11Ap     0.208223    12Ap     0.226453     3App    0.234508
       4App    0.242954    13Ap     0.246909     5App    0.251469
      14Ap     0.423736    15Ap     0.451838    16Ap     0.639156
      17Ap     0.668128     6App    0.731280     7App    0.744687
      18Ap     0.777912    19Ap     0.882812     8App    0.932757
      20Ap     1.021074    21Ap     1.151599     9App    1.186192
      10App    1.201351    22Ap     1.245983    23Ap     1.317168
      24Ap     1.570464    25Ap     1.606556    11App    1.617585
      26Ap     1.624826    12App    1.668892    27Ap     1.791105
      28Ap     1.817176    29Ap     3.768089    13App    3.774757
      14App    3.799581    30Ap     3.838575    31Ap     3.964762
      32Ap     4.051106

    Beta Occupied:

       1Ap   -66.131166     2Ap    -5.289142     3Ap    -3.647133
       4Ap    -3.646481     1App   -3.644008     5Ap    -0.489630
       6Ap    -0.359620

    Beta Virtual:

       7Ap    -0.133579     2App   -0.075600     8Ap     0.066459
       9Ap     0.077323    10Ap     0.162205    11Ap     0.223006
      12Ap     0.259989     3App    0.275090     4App    0.282160
      13Ap     0.310699     5App    0.323941    14Ap     0.456921
      15Ap     0.471047    16Ap     0.656515    17Ap     0.689688
       6App    0.757256     7App    0.778614    18Ap     0.813293
      19Ap     0.928300     8App    0.994929    20Ap     1.062317
      21Ap     1.175913     9App    1.226070    10App    1.235213
      22Ap     1.263754    23Ap     1.345537    24Ap     1.588488
      25Ap     1.625370    11App    1.650732    26Ap     1.653135
      12App    1.690976    27Ap     1.809282    28Ap     1.840476
      29Ap     3.782507    13App    3.790489    14App    3.815329
      30Ap     3.852726    31Ap     3.979237    32Ap     4.066727

    Final Occupation by Irrep:
             Ap   App
    DOCC [     6,    1 ]
    SOCC [     1,    1 ]

  @DF-UKS Final Energy:  -290.58546765708843

   => Energetics <=

    Nuclear Repulsion Energy =             10.1845884747347437
    One-Electron Energy =                -422.1521613058951061
    Two-Electron Energy =                 138.7906895117170620
    DFT Exchange-Correlation Energy =     -17.4085843376451592
    Empirical Dispersion Energy =           0.0000000000000000
    VV10 Nonlocal Energy =                  0.0000000000000000
    Total Energy =                       -290.5854676570884294

  UHF NO Occupations:
  HONO-2 :    6 Ap 1.9990892
  HONO-1 :    2App 1.0000000
  HONO-0 :    7 Ap 1.0000000
  LUNO+0 :    8 Ap 0.0009108
  LUNO+1 :    9 Ap 0.0001456
  LUNO+2 :    3App 0.0000005
  LUNO+3 :   10 Ap 0.0000004

Computation Completed

Properties will be evaluated at   0.000000,   0.000000,   0.000000 [a0]

Properties computed using the SCF density matrix

  Nuclear Dipole Moment: [e a0]
     X:     0.0068      Y:     1.3343      Z:     0.0000

  Electronic Dipole Moment: [e a0]
     X:    -0.0096      Y:    -1.3327      Z:     0.0000

  Dipole Moment: [e a0]
     X:    -0.0028      Y:     0.0016      Z:     0.0000     Total:     0.0032

  Dipole Moment: [D]
     X:    -0.0070      Y:     0.0041      Z:     0.0000     Total:     0.0081

*** tstop() called on n036 at Fri Nov  5 10:27:47 2021
Module time:
	user time   =      14.04 seconds =       0.23 minutes
	system time =       0.12 seconds =       0.00 minutes
	total time  =         14 seconds =       0.23 minutes
Total time:
	user time   =      14.04 seconds =       0.23 minutes
	system time =       0.12 seconds =       0.00 minutes
	total time  =         14 seconds =       0.23 minutes
Grab this energy -290.58546765708843
    Psi4 stopped on: Friday, 05 November 2021 10:27AM
    Psi4 wall time for execution: 0:00:14.21

*** Psi4 exiting successfully. Buy a developer a beer!
